% Model:              FEA.mph
% Version:            COMSOL 5.1.0.145
% Date:               Jun 21 2022, 22:14
% Dimension:          2
% Nodes:              500
% Expressions:        2
% Description:        Magnetic flux density, r component, Magnetic flux density, z component
% Length unit:        m
% r                       z                        mf.Br (T) @ freq=20000                            mf.Bz (T) @ freq=20000
0.006                     0.0025                   -0.003292820744622116-2.753921880144602E-11i      -2.0895484223642374E-4-5.116539957342361E-11i
0.00604809619238477       0.0025                   -0.0032067760297370164-2.763792832373679E-11i     -2.7667390896931937E-4-5.089179316654529E-11i
0.006096192384769539      0.0025                   -0.003120731314851924-2.7736637846027474E-11i     -3.4424767823418865E-4-5.061786102929542E-11i
0.006144288577154309      0.0025                   -0.003034686599966828-2.783534736831826E-11i      -4.116795621046602E-4-5.0343610810919354E-11i
0.006192384769539079      0.0025                   -0.0029266680461019177-2.7932226029310686E-11i    -5.17405498248788E-4-5.006861486217314E-11i
0.0062404809619238475     0.0025                   -0.0028263710598061542-2.8011989463360852E-11i    -5.114167762941637E-4-4.9817450294215746E-11i
0.006288577154308617      0.0025                   -0.0027260740735103872-2.8091752897410864E-11i    -5.047360427371497E-4-4.95661684514251E-11i
0.006336673346693387      0.0025                   -0.0026257770872146237-2.8171516331460875E-11i    -4.973790549576964E-4-4.931477200419592E-11i
0.0063847695390781565     0.0025                   -0.0025254801009188532-2.825127976551094E-11i     -4.893610955370861E-4-4.9063263542458906E-11i
0.006432865731462926      0.0025                   -0.002425183114623093-2.8331043199561053E-11i     -4.806969900074741E-4-4.881164557868907E-11i
0.006480961923847696      0.0025                   -0.0023248861283273314-2.8410806633611065E-11i    -4.714011238109788E-4-4.855992055077967E-11i
0.006529058116232465      0.0025                   -0.002224589142031566-2.8490570067661076E-11i     -4.6148745850930345E-4-4.830809082478887E-11i
0.006577154308617234      0.0025                   -0.002262085063379042-2.8548781437809956E-11i     -5.751788134764168E-4-4.802979022088568E-11i
0.006625250501002004      0.0025                   -0.0022012789662329045-2.861753347367618E-11i     -6.021910279951617E-4-4.7755742525927705E-11i
0.0066733466933867735     0.0025                   -0.002140472869086799-2.8686285509541953E-11i     -6.288774306338954E-4-4.748144397470659E-11i
0.006721442885771543      0.0025                   -0.0020796667719406776-2.8755037545407893E-11i    -6.552450155653507E-4-4.7206899952330866E-11i
0.006769539078156313      0.0025                   -0.0020188606747945496-2.8823789581273937E-11i    -6.81300578193594E-4-4.6932115690866856E-11i
0.006817635270541082      0.0025                   -0.0019580545776484368-2.889254161713963E-11i     -7.070507221652274E-4-4.665709627474096E-11i
0.006865731462925852      0.0025                   -0.001916264897606863-2.893933866802483E-11i      -6.586518745704862E-4-4.643833133907529E-11i
0.006913827655310622      0.0025                   -0.0018688344262035223-2.8990572368026486E-11i    -6.619239109571173E-4-4.617706822941127E-11i
0.006961923847695391      0.0025                   -0.0018214039548001813-2.9041806068028306E-11i    -6.647701125473756E-4-4.591567352655762E-11i
0.00701002004008016       0.0025                   -0.0017739734833968341-2.9093039768030106E-11i    -6.671992443799584E-4-4.5654149939121585E-11i
0.00705811623246493       0.0025                   -0.0017265430119934883-2.914427346803197E-11i     -6.692198325827709E-4-4.5392500101882136E-11i
0.0071062124248496995     0.0025                   -0.001679112540590142-2.919550716803369E-11i      -6.708401724579512E-4-4.513072657828694E-11i
0.007154308617234469      0.0025                   -0.0016316820691867975-2.924674086803564E-11i     -6.720683362406851E-4-4.4868831862850644E-11i
0.007202404809619239      0.0025                   -0.001584251597783453-2.9297974568037514E-11i     -6.729121805471674E-4-4.460681838345654E-11i
0.007250501002004008      0.0025                   -0.001536821126380098-2.9349208268039466E-11i     -6.733793535261946E-4-4.434468850356649E-11i
0.007298597194388778      0.0025                   -0.0015250872151973665-2.934337989872795E-11i     -6.566878956350856E-4-4.410895482740987E-11i
0.007346693386773547      0.0025                   -0.0014796321866841836-2.9393627947819316E-11i    -6.505471180113136E-4-4.385343779000676E-11i
0.007394789579158317      0.0025                   -0.0014341771581709954-2.9443875996910886E-11i    -6.440157134523941E-4-4.3597851754999853E-11i
0.007442885771543086      0.0025                   -0.0013887221296578142-2.9494124046002095E-11i    -6.371012546937404E-4-4.334219805998444E-11i
0.007490981963927856      0.0025                   -0.0013271971553879564-2.9559470262268086E-11i    -6.731665195433289E-4-4.304575075157824E-11i
0.0075390781563126254     0.0025                   -0.0012923348895114177-2.9597678719842836E-11i    -6.540859398440005E-4-4.281110513158619E-11i
0.007587174348697395      0.0025                   -0.0012574726236348752-2.96358871774177E-11i      -6.345669238437958E-4-4.257653331614395E-11i
0.007635270541082165      0.0025                   -0.0012303072301948857-2.963648479004607E-11i     -6.287932170466742E-4-4.228748219216169E-11i
0.0076833667334669335     0.0025                   -0.0012051853196043344-2.9658474194091936E-11i    -6.264512073635981E-4-4.2038092361118584E-11i
0.007731462925851704      0.0025                   -0.0011800634090137858-2.96804635981378E-11i      -6.238044657533163E-4-4.178868633849968E-11i
0.007779559118236473      0.0025                   -0.0011549414984232363-2.970245300218357E-11i     -6.208586441217492E-4-4.153926442461232E-11i
0.007827655310621243      0.0025                   -0.0011298195878326842-2.972444240622958E-11i     -6.176192554646797E-4-4.1289826912383476E-11i
0.007875751503006012      0.0025                   -0.0011046976772421347-2.9746431810275343E-11i    -6.140916781092955E-4-4.104037408758394E-11i
0.007923847695390781      0.0025                   -0.0010795757666515909-2.9768421214321E-11i       -6.102811598012434E-4-4.0790906229046623E-11i
0.007971943887775551      0.0025                   -0.0010544538560610388-2.979041061836705E-11i     -6.06192821643727E-4-4.054142360887556E-11i
0.008020040080160322      0.0025                   -0.0010293319454704802-2.981240002241299E-11i     -6.0183166189492E-4-4.029192649264708E-11i
0.00806813627254509       0.0025                   -0.0010042100348799377-2.983438942645866E-11i     -5.972025596294792E-4-4.00424151396053E-11i
0.00811623246492986       0.0025                   -9.790881242893856E-4-2.9856378830504693E-11i     -5.923102782699146E-4-3.979288980284915E-11i
0.00816432865731463       0.0025                   -9.539662136988326E-4-2.98783682345506E-11i       -5.87159468993159E-4-3.954335072951334E-11i
0.008212424849699399      0.0025                   -9.28844303108284E-4-2.990035763859655E-11i       -5.817546740173706E-4-3.929379816094335E-11i
0.00826052104208417       0.0025                   -9.037223925177328E-4-2.992234704264217E-11i      -5.761003297739679E-4-3.9044232332863956E-11i
0.008308617234468938      0.0025                   -8.786004819271833E-4-2.99443364466881E-11i       -5.702007699694884E-4-3.879465347554163E-11i
0.008356713426853707      0.0025                   -8.534785713366338E-4-2.9966325850733824E-11i     -5.640602285416704E-4-3.8545061813941714E-11i
0.008404809619238477      0.0025                   -8.283566607460765E-4-2.998831525477991E-11i      -5.576828425140981E-4-3.829545756787974E-11i
0.008452905811623246      0.0025                   -8.199682523397484E-4-2.9869371443084324E-11i     -5.53021302922707E-4-3.802945140528586E-11i
0.008501002004008017      0.0025                   -7.957362986198003E-4-2.988315229169794E-11i      -5.46571624548928E-4-3.777720979147338E-11i
0.008549098196392785      0.0025                   -7.646062983297482E-4-3.0040986837138853E-11i     -5.380049600647319E-4-3.7549033156410683E-11i
0.008597194388777554      0.0025                   -7.506069092989521E-4-3.002981203970779E-11i      -5.336842656410044E-4-3.7316425900480917E-11i
0.008645290581162325      0.0025                   -7.366075202681665E-4-3.001863724227648E-11i      -5.291623280015758E-4-3.7083900888925237E-11i
0.008693386773547095      0.0025                   -7.226081312373686E-4-3.000746244484564E-11i      -5.244424872828059E-4-3.6851456756691746E-11i
0.008741482965931864      0.0025                   -7.086087422065719E-4-2.9996287647414596E-11i     -5.195280101104718E-4-3.6619092168771216E-11i
0.008789579158316633      0.0025                   -6.946093531757853E-4-2.9985112849983423E-11i     -5.144220916110508E-4-3.638680581937483E-11i
0.008837675350701403      0.0025                   -6.806099641449915E-4-2.997393805255238E-11i      -5.091278573572255E-4-3.615459643113848E-11i
0.008885771543086172      0.0025                   -6.666105751141977E-4-2.996276325512135E-11i      -5.036483652502813E-4-3.5922462754354794E-11i
0.008933867735470943      0.0025                   -6.526111860834069E-4-2.995158845769025E-11i      -4.979866073416876E-4-3.56904035662278E-11i
0.008981963927855711      0.0025                   -6.386117970526143E-4-2.994041366025911E-11i      -4.921455115961247E-4-3.545841767015264E-11i
0.00903006012024048       0.0025                   -6.246124080218208E-4-2.992923886282812E-11i      -4.8612794359820656E-4-3.522650389501778E-11i
0.00907815631262525       0.0025                   -6.106130189910239E-4-2.9918064065397086E-11i     -4.7993670820492605E-4-3.499466109453015E-11i
0.009126252505010021      0.0025                   -5.966136299602304E-4-2.9906889267966075E-11i     -4.7357455114585057E-4-3.4762888146561054E-11i
0.00917434869739479       0.0025                   -5.826142409294383E-4-2.9895714470535063E-11i     -4.67044160573E-4-3.453118395251243E-11i
0.009222444889779559      0.0025                   -5.686148518986456E-4-2.9884539673104027E-11i     -4.603481685622097E-4-3.4299547436703856E-11i
0.00927054108216433       0.0025                   -5.546154628678539E-4-2.9873364875672886E-11i     -4.5348915256776426E-4-3.4067977545777303E-11i
0.009318637274549098      0.0025                   -5.406160738370604E-4-2.98621900782418E-11i       -4.464696368319945E-4-3.383647324812181E-11i
0.009366733466933869      0.0025                   -5.266166848062678E-4-2.985101528081068E-11i      -4.392920937514275E-4-3.3605033533314525E-11i
0.009414829659318637      0.0025                   -5.126172957754735E-4-2.983984048337962E-11i      -4.3195894520107927E-4-3.3373657411580336E-11i
0.009462925851703406      0.0025                   -5.008308507927876E-4-2.987655441226549E-11i      -4.287280451702667E-4-3.3248373629114037E-11i
0.009511022044088177      0.0025                   -4.905451328488727E-4-2.9846085272937123E-11i     -4.277912971460538E-4-3.301377992220349E-11i
0.009559118236472947      0.0025                   -4.802594149049648E-4-2.9815616133608445E-11i     -4.2673905380709255E-4-3.2779222219079275E-11i
0.009607214428857716      0.0025                   -4.6997369696105164E-4-2.9785146994280076E-11i    -4.25573049751354E-4-3.25446999790091E-11i
0.009655310621242485      0.0025                   -4.596879790171402E-4-2.9754677854951605E-11i     -4.2429498501445273E-4-3.2310212672034277E-11i
0.009703406813627255      0.0025                   -4.5153415678045165E-4-2.975806678522126E-11i     -4.191037090466538E-4-3.202910433467865E-11i
0.009751503006012024      0.0025                   -4.433903328447495E-4-2.973069516109237E-11i      -4.1394658983809395E-4-3.1819282358335816E-11i
0.009799599198396795      0.0025                   -4.352465089090456E-4-2.970332353696357E-11i      -4.0866475533637097E-4-3.160961697535983E-11i
0.009847695390781563      0.0025                   -4.27102684973342E-4-2.967595191283461E-11i       -4.0326003287177546E-4-3.1400105891343015E-11i
0.009895791583166332      0.0025                   -4.189588610376398E-4-2.964858028870564E-11i      -3.977342142493661E-4-3.119074685648231E-11i
0.009943887775551103      0.0025                   -4.108150371019344E-4-2.962120866457687E-11i      -3.920890566080652E-4-3.098153766450238E-11i
0.009991983967935873      0.0025                   -4.026712131662321E-4-2.959383704044803E-11i      -3.863262832550049E-4-3.077247615160716E-11i
0.010040080160320642      0.0025                   -3.9452738923052833E-4-2.956646541631913E-11i     -3.8044758447586247E-4-3.0563560195462355E-11i
0.01008817635270541       0.0025                   -3.863835652948254E-4-2.953909379219021E-11i      -3.74454618322031E-4-3.035478771420755E-11i
0.01013627254509018       0.0025                   -3.7823974135912193E-4-2.951172216806137E-11i     -3.6834901137534714E-4-3.0146156665495416E-11i
0.01018436873747495       0.0025                   -3.700959174234193E-4-2.94843505439324E-11i       -3.6213235949120615E-4-2.993766504555912E-11i
0.01023246492985972       0.0025                   -3.6195209348771455E-4-2.9456978919803614E-11i    -3.558062285206617E-4-2.972931088830565E-11i
0.01028056112224449       0.0025                   -3.5380826955201325E-4-2.942960729567466E-11i     -3.493721550122954E-4-2.9521092264433986E-11i
0.010328657314629258      0.0025                   -3.4742326370021913E-4-2.942353897043206E-11i     -3.468633341349861E-4-2.9363078308957086E-11i
0.010376753507014029      0.0025                   -3.4102569139441395E-4-2.9379332980246464E-11i    -3.451961948174594E-4-2.9152508643885355E-11i
0.010424849699398797      0.0025                   -3.346281190886079E-4-2.9335126990060866E-11i     -3.4344810432973587E-4-2.894205374585234E-11i
0.010472945891783568      0.0025                   -3.2823054678280186E-4-2.9290920999875165E-11i    -3.4162017795773904E-4-2.8731712033681832E-11i
0.010521042084168337      0.0025                   -3.218329744769967E-4-2.9246715009689516E-11i     -3.397135105935993E-4-2.8521481955110593E-11i
0.010569138276553106      0.0025                   -3.1543540217119064E-4-2.920250901950397E-11i     -3.3772917719966525E-4-2.8311361986130522E-11i
0.010617234468937876      0.0025                   -3.0903782986538286E-4-2.915830302931837E-11i     -3.3566823325991736E-4-2.8101350630348245E-11i
0.010665330661322647      0.0025                   -3.026402575595777E-4-2.9114097039132774E-11i     -3.335317152191759E-4-2.789144641836341E-11i
0.010713426853707415      0.0025                   -2.9819473289409665E-4-2.908783303811516E-11i     -3.2752240456781416E-4-2.765086077665901E-11i
0.010761523046092184      0.0025                   -2.93229596426218E-4-2.9046197206167117E-11i      -3.236846178437038E-4-2.7463888489461235E-11i
0.010809619238476955      0.0025                   -2.882644599583379E-4-2.9004561374219074E-11i     -3.197676174766657E-4-2.7277121343372295E-11i
0.010857715430861723      0.0025                   -2.8329932349045793E-4-2.8962925542271118E-11i    -3.1577245613969597E-4-2.7090556612264357E-11i
0.010905811623246494      0.0025                   -2.783341870225801E-4-2.8921289710322952E-11i     -3.1170016793603404E-4-2.6904191618100452E-11i
0.010953907815631263      0.0025                   -2.733690505546993E-4-2.887965387837489E-11i      -3.075517688068481E-4-2.6718023729877675E-11i
0.011002004008016032      0.0025                   -2.6840391408682084E-4-2.8838018046426818E-11i    -3.0332825692820485E-4-2.6532050362600113E-11i
0.011050100200400802      0.0025                   -2.63438777618941E-4-2.8796382214478716E-11i      -2.990306130977074E-4-2.634626897627731E-11i
0.011098196392785573      0.0025                   -2.584736411510623E-4-2.8754746382530712E-11i     -2.94659801111042E-4-2.616067707494881E-11i
0.011146292585170341      0.0025                   -2.535085046831815E-4-2.871311055058267E-11i      -2.902167681288095E-4-2.5975272205734502E-11i
0.01119438877755511       0.0025                   -2.4854336821530216E-4-2.8671474718634574E-11i    -2.8570244503387215E-4-2.5790051957908956E-11i
0.011242484969939879      0.0025                   -2.4357823174742414E-4-2.8629838886686492E-11i    -2.811177467795475E-4-2.560501396199964E-11i
0.01129058116232465       0.0025                   -2.3861309527954374E-4-2.85882030547385E-11i      -2.7646357272890197E-4-2.5420155888908646E-11i
0.01133867735470942       0.0025                   -2.3600137971810983E-4-2.8557444953555613E-11i    -2.767164418417765E-4-2.526229204867523E-11i
0.011386773547094189      0.0025                   -2.3184883913946516E-4-2.850169456380973E-11i     -2.7503743377663495E-4-2.5072439700322714E-11i
0.011434869739478958      0.0025                   -2.276962985608231E-4-2.8445944174063798E-11i     -2.7330429806461307E-4-2.488273674910455E-11i
0.011482965931863728      0.0025                   -2.2354375798217755E-4-2.8390193784317916E-11i    -2.715177148436929E-4-2.4693181317778834E-11i
0.011531062124248499      0.0025                   -2.1939121740353375E-4-2.8334443394572138E-11i    -2.696783529043795E-4-2.4503771560424722E-11i
0.011579158316633267      0.0025                   -2.1523867682488994E-4-2.8278693004826205E-11i    -2.677868699254166E-4-2.4314505661789653E-11i
0.011627254509018036      0.0025                   -2.1108613624624614E-4-2.8222942615080168E-11i    -2.658439127035655E-4-2.4125381836657205E-11i
0.011675350701402805      0.0025                   -2.0986097946251877E-4-2.8184906086742025E-11i    -2.5750036383413174E-4-2.3902582241464988E-11i
0.011723446893787575      0.0025                   -2.0658304913541013E-4-2.8128853767186037E-11i    -2.553043933273195E-4-2.3735504043005288E-11i
0.011771543086172346      0.0025                   -2.0330511880830248E-4-2.807280144763008E-11i     -2.5305852601228805E-4-2.3568652812641217E-11i
0.011819639278557115      0.0025                   -2.0002718848119373E-4-2.8016749128074027E-11i    -2.507633710057169E-4-2.3402025779653407E-11i
0.011867735470941883      0.0025                   -1.9674925815408727E-4-2.796069680851784E-11i     -2.4841952755005854E-4-2.3235620218237982E-11i
0.011915831663326654      0.0025                   -1.9347132782697766E-4-2.7904644488961893E-11i    -2.4602758521280964E-4-2.3069433446599705E-11i
0.011963927855711423      0.0025                   -1.9019339749987022E-4-2.7848592169405757E-11i    -2.4358812408098457E-4-2.2903462826068253E-11i
0.012012024048096193      0.0025                   -1.8691546717276137E-4-2.7792539849849756E-11i    -2.4110171495091284E-4-2.273770576023361E-11i
0.012060120240480962      0.0025                   -1.8363753684565469E-4-2.7736487530293607E-11i    -2.3856891951349967E-4-2.2572159694104508E-11i
0.012108216432865731      0.0025                   -1.8035960651854714E-4-2.7680435210737626E-11i    -2.359902905350719E-4-2.240682211328548E-11i
0.012156312625250501      0.0025                   -1.7708167619143807E-4-2.762438289118158E-11i     -2.3336637203391907E-4-2.2241690543172953E-11i
0.012204408817635272      0.0025                   -1.7380374586432922E-4-2.7568330571625586E-11i    -2.306976994526768E-4-2.20767625481728E-11i
0.01225250501002004       0.0025                   -1.7052581553722189E-4-2.7512278252069463E-11i    -2.2798479982663074E-4-2.191203573093324E-11i
0.01230060120240481       0.0025                   -1.6724788521011238E-4-2.745622593251352E-11i     -2.2522819194810162E-4-2.1747507731597584E-11i
0.01234869739478958       0.0025                   -1.6396995488300462E-4-2.7400173612957423E-11i    -2.2242838652694505E-4-2.1583176227074765E-11i
0.012396793587174349      0.0025                   -1.6069202455589729E-4-2.7344121293401196E-11i    -2.1958588634736728E-4-2.1419038930325365E-11i
0.01244488977955912       0.0025                   -1.5741409422878952E-4-2.7288068973845176E-11i    -2.167011864210614E-4-2.125509358966443E-11i
0.012492985971943888      0.0025                   -1.6016310045760236E-4-2.720160415497569E-11i     -2.112103746685615E-4-2.1102692333660897E-11i
0.012541082164328657      0.0025                   -1.5824580384437258E-4-2.7152752663058547E-11i    -2.145607332505135E-4-2.087411048582686E-11i
0.012589178356713427      0.0025                   -1.5340364800504164E-4-2.7189540618728453E-11i    -2.116709563757861E-4-2.075459975200229E-11i
0.012637274549098198      0.0025                   -1.5122821434430847E-4-2.712944229342269E-11i     -2.097150551956639E-4-2.0597343916452125E-11i
0.012685370741482967      0.0025                   -1.4905278068357095E-4-2.706934396811675E-11i     -2.077232711869709E-4-2.0440292097223546E-11i
0.012733466933867735      0.0025                   -1.4687734702283425E-4-2.7009245642810975E-11i    -2.056960109539881E-4-2.028344198251727E-11i
0.012781563126252504      0.0025                   -1.4470191336210064E-4-2.6949147317505165E-11i    -2.0363367498091122E-4-2.0126791295329475E-11i
0.012829659318637275      0.0025                   -1.425264797013669E-4-2.688904899219927E-11i      -2.015366577465389E-4-1.9970337792801956E-11i
0.012877755511022045      0.0025                   -1.4035104604062984E-4-2.6828950666893648E-11i    -1.9940534783642938E-4-1.9814079265582814E-11i
0.012925851703406814      0.0025                   -1.3817561237989477E-4-2.676885234158769E-11i     -1.972401280525471E-4-1.9658013537203262E-11i
0.012973947895791583      0.0025                   -1.360001787191604E-4-2.670875401628178E-11i      -1.9504137552045804E-4-1.9502138463468693E-11i
0.013022044088176353      0.0025                   -1.338247450584243E-4-2.664865569097598E-11i      -1.9280946179415695E-4-1.9346451931862393E-11i
0.013070140280561124      0.0025                   -1.3164931139768993E-4-2.6588557365670153E-11i    -1.905447529585853E-4-1.9190951860962417E-11i
0.013118236472945893      0.0025                   -1.2947387773695404E-4-2.6528459040364327E-11i    -1.8824760972988586E-4-1.9035636199871723E-11i
0.013166332665330661      0.0025                   -1.272984440762188E-4-2.64683607150585E-11i       -1.8591838755346128E-4-1.888050292766126E-11i
0.01321442885771543       0.0025                   -1.2512301041548292E-4-2.6408262389752778E-11i    -1.8355743669989805E-4-1.8725550052823427E-11i
0.0132625250501002        0.0025                   -1.2294757675474768E-4-2.634816406444695E-11i     -1.8116510235879348E-4-1.8570775612739685E-11i
0.013310621242484971      0.0025                   -1.2077214309401353E-4-2.6288065739141022E-11i    -1.7874172473055367E-4-1.8416177673157682E-11i
0.01335871743486974       0.0025                   -1.1859670943327721E-4-2.6227967413835248E-11i    -1.7628763911621073E-4-1.8261754327681513E-11i
0.013406813627254509      0.0025                   -1.173587115890079E-4-2.6190566291108503E-11i     -1.7640773968051785E-4-1.818508788694605E-11i
0.01345490981963928       0.0025                   -1.1555424213056248E-4-2.6122663949817275E-11i    -1.7522582090956097E-4-1.804120335264436E-11i
0.013503006012024048      0.0025                   -1.1374977267211792E-4-2.6054761608526047E-11i    -1.740187938160959E-4-1.7897521032832286E-11i
0.013551102204408819      0.0025                   -1.119453032136725E-4-2.598685926723482E-11i      -1.7278692574694405E-4-1.775403877438342E-11i
0.013599198396793587      0.0025                   -1.1014083375522838E-4-2.591895692594354E-11i     -1.7153048026683607E-4-1.761075445463064E-11i
0.013647294589178356      0.0025                   -1.0833636429678252E-4-2.5851054584652363E-11i    -1.7024971722505021E-4-1.7467665980829907E-11i
0.013695390781563127      0.0025                   -1.0720591947601462E-4-2.5806456727579338E-11i    -1.6781395898296146E-4-1.728757149084298E-11i
0.013743486973947897      0.0025                   -1.05788935013142E-4-2.5746231028178493E-11i      -1.6621354608947753E-4-1.7151340018985096E-11i
0.013791583166332666      0.0025                   -1.0437195055026677E-4-2.56860053287777E-11i      -1.645886719223198E-4-1.7015322094538783E-11i
0.013839679358717435      0.0025                   -1.0295496608739264E-4-2.5625779629376834E-11i    -1.6293959150779524E-4-1.6879515491118958E-11i
0.013887775551102205      0.0025                   -1.0153798162451883E-4-2.5565553929976076E-11i    -1.612665563393851E-4-1.6743918013182876E-11i
0.013935871743486974      0.0025                   -1.0012099716164426E-4-2.5505328230575205E-11i    -1.5956981443870116E-4-1.6608527495496575E-11i
0.013983967935871745      0.0025                   -9.870401269876952E-5-2.544510253117444E-11i      -1.5784961041518856E-4-1.64733418026147E-11i
0.014032064128256513      0.0025                   -9.728702823589549E-5-2.5384876831773628E-11i     -1.5610618552460947E-4-1.6338358828369747E-11i
0.014080160320641284      0.0025                   -9.587004377302108E-5-2.5324651132372808E-11i     -1.5433977772631873E-4-1.620357649537164E-11i
0.014128256513026053      0.0025                   -9.445305931014662E-5-2.526442543297204E-11i      -1.525506217393747E-4-1.6068992754518388E-11i
0.014176352705410821      0.0025                   -9.303607484727227E-5-2.5204199733571195E-11i     -1.5073894909750505E-4-1.5934605584515738E-11i
0.014224448897795592      0.0025                   -9.161909038439791E-5-2.51439740341704E-11i       -1.4890498820295498E-4-1.5800412991407534E-11i
0.01427254509018036       0.0025                   -9.020210592152324E-5-2.5083748334769582E-11i     -1.4704896437925833E-4-1.566641300811477E-11i
0.014320641282565131      0.0025                   -8.936413954469067E-5-2.5037193862891525E-11i     -1.4640268890082605E-4-1.5561947846980905E-11i
0.0143687374749499        0.0025                   -8.810228994950457E-5-2.4969179948896094E-11i     -1.4539223274978585E-4-1.543294535345912E-11i
0.01441683366733467       0.0025                   -8.68404403543202E-5-2.4901166034900715E-11i      -1.4436328153600187E-4-1.5304144073299475E-11i
0.01446492985971944       0.0025                   -8.55785907591354E-5-2.4833152120905388E-11i      -1.4331601974887625E-4-1.5175541999386233E-11i
0.014513026052104208      0.0025                   -8.431674116394887E-5-2.476513820691006E-11i      -1.422506294322254E-4-1.504713715120909E-11i
0.014561122244488979      0.0025                   -8.30548915687645E-5-2.4697124292914733E-11i      -1.411672902246514E-4-1.491892757442619E-11i
0.014609218436873747      0.0025                   -8.179304197357927E-5-2.4629110378919406E-11i     -1.4006617939915433E-4-1.479091134043078E-11i
0.014657314629258518      0.0025                   -8.053119237839447E-5-2.4561096464924078E-11i     -1.3894747190193113E-4-1.4663086545931064E-11i
0.014705410821643287      0.0025                   -8.007142761219145E-5-2.4509503256781204E-11i     -1.360934714673379E-4-1.4502344495031777E-11i
0.014753507014028057      0.0025                   -7.905274455973508E-5-2.4445128495343612E-11i     -1.3504311722913585E-4-1.4384610635116627E-11i
0.014801603206412826      0.0025                   -7.803406150727827E-5-2.438075373390621E-11i      -1.3397606504819798E-4-1.4267095108685761E-11i
0.014849699398797595      0.0025                   -7.7015378454822E-5-2.431637897246868E-11i        -1.328924771717407E-4-1.4149795794280023E-11i
0.014897795591182365      0.0025                   -7.599669540236577E-5-2.425200421103125E-11i      -1.3179251375177817E-4-1.4032710597836291E-11i
0.014945891783567134      0.0025                   -7.497801234990925E-5-2.4187629449593783E-11i     -1.30676332878836E-4-1.3915837452246414E-11i
0.014993987975951905      0.0025                   -7.395932929745314E-5-2.41232546881562E-11i       -1.2954409061501014E-4-1.379917431692464E-11i
0.015042084168336673      0.0025                   -7.29406462449965E-5-2.4058879926718795E-11i      -1.2839594102640267E-4-1.3682719177383962E-11i
0.015090180360721444      0.0025                   -7.192196319254045E-5-2.399450516528123E-11i      -1.272320362149211E-4-1.3566470044820393E-11i
0.015138276553106213      0.0025                   -7.090328014008375E-5-2.3930130403843817E-11i     -1.2605252634949142E-4-1.3450424955703896E-11i
0.015186372745490983      0.0025                   -6.988459708762748E-5-2.386575564240625E-11i      -1.2485755969665805E-4-1.3334581971379754E-11i
0.015234468937875752      0.0025                   -6.886591403517132E-5-2.3801380880968736E-11i     -1.2364728265061865E-4-1.3218939177674708E-11i
0.01528256513026052       0.0025                   -6.784723098271408E-5-2.3737006119531402E-11i     -1.2242183976268774E-4-1.3103494684511754E-11i
0.015330661322645291      0.0025                   -6.682854793025922E-5-2.367263135809381E-11i      -1.2118137377019783E-4-1.298824662553329E-11i
0.01537875751503006       0.0025                   -6.580986487780176E-5-2.3608256596656295E-11i     -1.1992602562487596E-4-1.2873193157728804E-11i
0.01542685370741483       0.0025                   -6.479118182534625E-5-2.3543881835218806E-11i     -1.186559345206658E-4-1.2758332461071714E-11i
0.0154749498997996        0.0025                   -6.377249877288771E-5-2.347950707378142E-11i      -1.1737123792105518E-4-1.2643662738161841E-11i
0.01552304609218437       0.0025                   -6.370812079084607E-5-2.343089443351006E-11i      -1.1756899507980214E-4-1.2556356823728059E-11i
0.015571142284569139      0.0025                   -6.331216183656123E-5-2.3385500609897633E-11i     -1.1602945849967339E-4-1.2412132214619156E-11i
0.01561923847695391       0.0025                   -6.257168189215015E-5-2.3322052477144375E-11i     -1.1511443754310529E-4-1.2302024002648378E-11i