% Model:              FEA.mph
% Version:            COMSOL 6.0.0.318
% Date:               Jul 31 2022, 08:40
% Dimension:          2
% Nodes:              500
% Expressions:        4
% Description:        Magnetic flux density, r component, Magnetic flux density, z component
% Length unit:        m
% r                       z                        mf.Br (T) @ freq=20000, Switch 1=Liver            mf.Bz (T) @ freq=20000, Switch 1=Liver            mf.Br (T) @ freq=20000, Switch 1=Air mf.Bz (T) @ freq=20000, Switch 1=Air
0.006                     0.0025                   -0.003287728177846789-2.754678028335849E-11i      -2.3281791504122505E-4-5.1147301111485075E-11i    -0.00328772818718535     -2.3281793238056855E-4
0.00604809619238477       0.0025                   -0.003206068143620137-2.7650341262135093E-11i     -3.162265327032339E-4-5.08732220421537E-11i       -0.003206068152993808    -3.1622654994966086E-4
0.006096192384769539      0.0025                   -0.0031244081093934847-2.7753902240911912E-11i    -3.996074225236562E-4-5.05988182460817E-11i       -0.0031244081188022584   -3.9960743967706056E-4
0.006144288577154309      0.0025                   -0.0030217461909192566-2.784701033131036E-11i     -5.138419073189473E-4-5.033991240868578E-11i      -0.0030217462003595905   -5.138419243845955E-4
0.006192384769539079      0.0025                   -0.002924117603531213-2.7926854173026843E-11i     -5.13193618713597E-4-5.0086610236401356E-11i      -0.0029241176129986206   -5.131936356933681E-4
0.0062404809619238475     0.0025                   -0.002826489016143174-2.8006698014743266E-11i     -5.118743165231268E-4-4.9833168215880676E-11i     -0.0028264890256376467   -5.11874333416974E-4
0.006288577154308617      0.0025                   -0.0027288604287551356-2.808654185645973E-11i     -5.098993968527508E-4-4.95795895558786E-11i       -0.00272886043827668     -5.098994136606306E-4
0.006336673346693387      0.0025                   -0.0026312318413670944-2.8166385698176117E-11i    -5.072837883737301E-4-4.932587736773052E-11i      -0.0026312318509157033   -5.072838050956031E-4
0.0063847695390781565     0.0025                   -0.0025336032539790485-2.824622953989269E-11i     -5.040419699292103E-4-4.9072034669021685E-11i     -0.00253360326355473     -5.040419865650196E-4
0.006432865731462926      0.0025                   -0.0024359746665910103-2.832607338160916E-11i     -5.001879873501773E-4-4.8818064387091795E-11i     -0.002435974676193761    -5.001880038998914E-4
0.006480961923847696      0.0025                   -0.002338346079202966-2.8405917223325528E-11i     -4.957354695227546E-4-4.856396936238364E-11i      -0.0023383460888327856   -4.957354859863223E-4
0.006529058116232465      0.0025                   -0.0022407174918149305-2.8485761065042038E-11i    -4.906976437452422E-4-4.8309752351643576E-11i     -0.002240717501471815    -4.906976601226271E-4
0.006577154308617234      0.0025                   -0.002143088904426887-2.8565604906758548E-11i     -4.8508735041143526E-4-4.8055416030982144E-11i    -0.0021430889141108404   -4.850873667025955E-4
0.006625250501002004      0.0025                   -0.002178824382976693-2.857948384219514E-11i      -5.701585083723124E-4-4.7755759044245554E-11i     -0.0021788243926653787   -5.701585245618977E-4
0.0066733466933867735     0.0025                   -0.0021251664830816627-2.864757540650959E-11i     -6.027670032930778E-4-4.7476508073620174E-11i     -0.0021251664927934323   -6.027670193879916E-4
0.006721442885771543      0.0025                   -0.002071508583186634-2.8715666970823936E-11i     -6.351036792824566E-4-4.7196977609018294E-11i     -0.002071508592921493    -6.35103695282612E-4
0.006769539078156313      0.0025                   -0.0020178506832916054-2.8783758535138178E-11i    -6.671743299944118E-4-4.691717360768243E-11i      -0.0020178506930495464   -6.67174345899703E-4
0.006817635270541082      0.0025                   -0.0019641927833965733-2.8851850099452782E-11i    -6.98984585593525E-4-4.6637101858750174E-11i      -0.0019641927931775965   -6.989846014038609E-4
0.006865731462925852      0.0025                   -0.001910534883501555-2.891994166376687E-11i      -7.305399184814856E-4-4.635676798914119E-11i      -0.0019105348933056675   -7.305399341967897E-4
0.006913827655310622      0.0025                   -0.0018779100708295584-2.895128867901387E-11i     -6.555145602078667E-4-4.620196545498619E-11i      -0.0018779100806442899   -6.555145758707175E-4
0.006961923847695391      0.0025                   -0.0018355051107981817-2.8995816713745476E-11i    -6.573004822741186E-4-4.594223175928414E-11i      -0.0018355051206280035   -6.573004978489164E-4
0.00701002004008016       0.0025                   -0.0017931001507668007-2.904034474847725E-11i     -6.586631090318019E-4-4.5682377633972146E-11i     -0.001793100160611719    -6.586631245185093E-4
0.00705811623246493       0.0025                   -0.0017506951907354223-2.9084872783209074E-11i    -6.596110938773393E-4-4.5422405540984485E-11i     -0.001750695200595437    -6.596111092759128E-4
0.0071062124248496995     0.0025                   -0.0017082902307040404-2.9129400817940666E-11i    -6.601528559358623E-4-4.5162317875603626E-11i     -0.0017082902405791559   -6.601528712462607E-4
0.007154308617234469      0.0025                   -0.0016658852706726637-2.9173928852672284E-11i    -6.602965879358416E-4-4.4902116968701556E-11i     -0.0016658852805628687   -6.602966031580327E-4
0.007202404809619239      0.0025                   -0.0016234803106412836-2.921845688740424E-11i     -6.60050263768268E-4-4.464180508888972E-11i       -0.0016234803205465815   -6.600502789022044E-4
0.007250501002004008      0.0025                   -0.0015499995308904547-2.931298571289271E-11i     -6.699097805588936E-4-4.436456617846926E-11i      -0.0015499995408277984   -6.699097955988442E-4
0.007298597194388778      0.0025                   -0.0015095365066325672-2.9358363108404974E-11i    -6.641420417141523E-4-4.4110234165520646E-11i     -0.0015095365165852892   -6.641420566678739E-4
0.007346693386773547      0.0025                   -0.0014690734823746812-2.9403740503917205E-11i    -6.579746995954074E-4-4.3855839945283916E-11i     -0.00146907349234279     -6.579747144628881E-4
0.007394789579158317      0.0025                   -0.0014286104581167957-2.944911789942968E-11i     -6.514155513397245E-4-4.3601384731560053E-11i     -0.001428610468100281    -6.514155661209405E-4
0.007442885771543086      0.0025                   -0.0013881474338589053-2.949449529494205E-11i     -6.44472192542651E-4-4.334686970677498E-11i       -0.0013881474438577786   -6.444722072375846E-4
0.007490981963927856      0.0025                   -0.001347684409601024-2.9539872690454326E-11i     -6.371520237282615E-4-4.3092296022987696E-11i     -0.00134768441961528     -6.371520383368866E-4
0.0075390781563126254     0.0025                   -0.001307221385343132-2.95852500859667E-11i       -6.29462256571524E-4-4.2837664802858446E-11i      -0.0013072213953727724   -6.294622710938276E-4
0.007587174348697395      0.0025                   -0.0012765000824807617-2.9614509277056715E-11i    -6.528551098946584E-4-4.2522922320697205E-11i     -0.0012765000925203177   -6.528551243102529E-4
0.007635270541082165      0.0025                   -0.0012467406597752714-2.964270964891892E-11i     -6.471044213448745E-4-4.22774292222619E-11i       -0.0012467406698243935   -6.4710443567725E-4
0.0076833667334669335     0.0025                   -0.0012169812370697941-2.967091002078093E-11i     -6.410175031336413E-4-4.2031946146535525E-11i     -0.0012169812471284729   -6.410175173827958E-4
0.007731462925851704      0.0025                   -0.0011872218143643039-2.9699110392643174E-11i    -6.346006301535318E-4-4.178647290646912E-11i      -0.0011872218244325505   -6.346006443194677E-4
0.007779559118236473      0.0025                   -0.0011574623916588232-2.972731076450529E-11i     -6.278599221220708E-4-4.154100931963919E-11i      -0.0011574624017366315   -6.278599362047945E-4
0.007827655310621243      0.0025                   -0.0011277029689533424-2.97555111363674E-11i      -6.208013483489473E-4-4.129555520810615E-11i      -0.0011277029790407057   -6.208013623484603E-4
0.007875751503006012      0.0025                   -0.0010956188025241587-2.976474883603016E-11i     -6.136997427662492E-4-4.1039416046453345E-11i     -0.001095618812614647    -6.136997566789291E-4
0.007923847695390781      0.0025                   -0.0010698871350673803-2.9784822282634824E-11i    -6.105989278218338E-4-4.078322449383859E-11i      -0.0010698871451646722   -6.105989416476561E-4
0.007971943887775551      0.0025                   -0.0010441554676105975-2.980489572923967E-11i     -6.072246260907259E-4-4.052697877180745E-11i      -0.0010441554777146957   -6.072246398296811E-4
0.008020040080160322      0.0025                   -0.0010184238001538191-2.98249691758443E-11i      -6.035817578749281E-4-4.0270679854922756E-11i     -0.0010184238102647226   -6.035817715269944E-4
0.00806813627254509       0.0025                   -9.926921326970442E-4-2.9845042622448784E-11i     -5.996751261518135E-4-4.001432869450785E-11i      -9.92692142814753E-4     -5.996751397169699E-4
0.00811623246492986       0.0025                   -9.669604652402623E-4-2.986511606905352E-11i      -5.955094200504066E-4-3.975792621933667E-11i      -9.669604753647747E-4    -5.955094335286461E-4
0.00816432865731463       0.0025                   -9.412287977834839E-4-2.9885189515658314E-11i     -5.910892182047796E-4-3.9501473336297693E-11i     -9.412288079147998E-4    -5.910892315960818E-4
0.008212424849699399      0.0025                   -9.155043268069579E-4-2.990640115031734E-11i      -5.634137858450507E-4-3.9335592066974157E-11i     -9.155043369454634E-4    -5.634137991801218E-4
0.00826052104208417       0.0025                   -8.9567920844908E-4-2.990828347987172E-11i        -5.618144914501441E-4-3.9088368573270395E-11i     -8.956792185882299E-4    -5.618145047014054E-4
0.008308617234468938      0.0025                   -8.758540900912042E-4-2.9910165809426126E-11i     -5.599951404787767E-4-3.884114171597655E-11i      -8.758541002309907E-4    -5.599951536462268E-4
0.008356713426853707      0.0025                   -8.560289717333283E-4-2.991204813898071E-11i      -5.579595324689429E-4-3.859391155316908E-11i      -8.560289818737568E-4    -5.579595455525824E-4
0.008404809619238477      0.0025                   -8.362038533754551E-4-2.9913930468535246E-11i     -5.557113799878365E-4-3.834667814159515E-11i      -8.362038635165167E-4    -5.557113929876591E-4
0.008452905811623246      0.0025                   -8.03225320880752E-4-2.997266124530988E-11i       -5.595131190638712E-4-3.807103080643405E-11i      -8.032253310417126E-4    -5.595131319702556E-4
0.008501002004008017      0.0025                   -7.862565616374249E-4-2.997659644309061E-11i      -5.518965038357658E-4-3.78338397684385E-11i       -7.862565717997282E-4    -5.518965166617418E-4
0.008549098196392785      0.0025                   -7.692878023940991E-4-2.998053164087152E-11i      -5.440497608873117E-4-3.759670437197632E-11i      -7.692878125577351E-4    -5.440497736328956E-4
0.008597194388777554      0.0025                   -7.523190431507746E-4-2.9984466838652434E-11i     -5.359767525019247E-4-3.735962368320348E-11i      -7.523190533157481E-4    -5.359767651671339E-4
0.008645290581162325      0.0025                   -7.353502839074513E-4-2.998840203643311E-11i      -5.276812550151287E-4-3.7122596789056966E-11i     -7.353502940737574E-4    -5.276812675999837E-4
0.008693386773547095      0.0025                   -7.183815246641252E-4-2.999233723421398E-11i      -5.191669611920923E-4-3.688562279667998E-11i      -7.18381534831769E-4     -5.191669736966111E-4
0.008741482965931864      0.0025                   -7.014127654208053E-4-2.9996272431994655E-11i     -5.104374825266744E-4-3.6648700832865744E-11i     -7.014127755897816E-4    -5.104374949508814E-4
0.008789579158316633      0.0025                   -6.844440061774797E-4-3.000020762977565E-11i      -5.014963514649979E-4-3.6411830043520353E-11i     -6.844440163477909E-4    -5.014963638089007E-4
0.008837675350701403      0.0025                   -6.674752469341561E-4-3.00041428275565E-11i       -4.923470235563722E-4-3.617500959314222E-11i      -6.674752571058E-4       -4.923470358199895E-4
0.008885771543086172      0.0025                   -6.54953047957964E-4-2.999053631737026E-11i       -4.914071535515107E-4-3.5929923269855596E-11i     -6.549530581249979E-4    -4.914071657320419E-4
0.008933867735470943      0.0025                   -6.41863683675364E-4-2.998042284421149E-11i       -4.883448333831372E-4-3.5696957430079956E-11i     -6.418636938389675E-4    -4.883448454846939E-4
0.008981963927855711      0.0025                   -6.287743193927628E-4-2.997030937105286E-11i      -4.8511801135551406E-4-3.546406018953187E-11i     -6.287743295529382E-4    -4.851180233781179E-4
0.00903006012024048       0.0025                   -6.156849551101642E-4-2.99601958978942E-11i       -4.817293159936931E-4-3.5231230452084936E-11i     -6.156849652669094E-4    -4.8172932793736495E-4
0.00907815631262525       0.0025                   -6.02595590827562E-4-2.99500824247355E-11i        -4.7818132011887807E-4-3.4998467144842074E-11i    -6.025956009808799E-4    -4.7818133198363974E-4
0.009126252505010021      0.0025                   -5.895062265449634E-4-2.993996895157687E-11i      -4.7447654231625195E-4-3.476576921752368E-11i     -5.895062366948504E-4    -4.744765541021276E-4
0.00917434869739479       0.0025                   -5.76416862262363E-4-2.9929855478418235E-11i      -4.7061744835663415E-4-3.453313564187389E-11i     -5.764168724088207E-4    -4.7061746006364343E-4
0.009222444889779559      0.0025                   -5.633274979797643E-4-2.991974200525962E-11i      -4.6660645257364387E-4-3.430056541108685E-11i     -5.633275081227963E-4    -4.666064642018093E-4
0.00927054108216433       0.0025                   -5.502381336971638E-4-2.990962853210105E-11i      -4.624459191979911E-4-3.406805753925053E-11i      -5.502381438367632E-4    -4.6244593074733567E-4
0.009318637274549098      0.0025                   -5.371487694145617E-4-2.9899515058942156E-11i     -4.5813816365046956E-4-3.3835611060806657E-11i    -5.371487795507388E-4    -4.5813817512100783E-4
0.009366733466933869      0.0025                   -5.240594051319648E-4-2.98894015857836E-11i       -4.536854537950827E-4-3.3603225030029435E-11i     -5.24059415264704E-4     -4.536854651868386E-4
0.009414829659318637      0.0025                   -5.113231002329338E-4-2.984571982981629E-11i      -4.4848818620545224E-4-3.3417525274260455E-11i    -5.113231103508658E-4    -4.4848819753425537E-4
0.009462925851703406      0.0025                   -5.010057365416432E-4-2.9833733101974275E-11i     -4.3996645793317323E-4-3.3203797812534126E-11i    -5.010057466555125E-4    -4.3996646918952227E-4
0.009511022044088177      0.0025                   -4.906883728503543E-4-2.9821746374132175E-11i     -4.312873534651955E-4-3.299021754649437E-11i      -4.906883829601629E-4    -4.312873646491387E-4
0.009559118236472947      0.0025                   -4.8037100915905703E-4-2.98097596462904E-11i      -4.2245324829126595E-4-3.2776782254319386E-11i    -4.803710192648014E-4    -4.22453259402856E-4
0.009607214428857716      0.0025                   -4.70053645467768E-4-2.9797772918448474E-11i      -4.134664703318757E-4-3.256348975867974E-11i      -4.700536555694466E-4    -4.1346648137115607E-4
0.009655310621242485      0.0025                   -4.618077955880378E-4-2.9745818570111597E-11i     -4.0948487559918056E-4-3.228454727319063E-11i     -4.61807805672107E-4     -4.0948488654389954E-4
0.009703406813627255      0.0025                   -4.539320154270433E-4-2.97199716901229E-11i       -4.0644382956000813E-4-3.207026768616603E-11i     -4.5393202550235044E-4   -4.064438404320853E-4
0.009751503006012024      0.0025                   -4.4605623526604255E-4-2.969412481013457E-11i     -4.032870146066668E-4-3.1856123199288306E-11i     -4.460562453325876E-4    -4.032870254061469E-4
0.009799599198396795      0.0025                   -4.381804551050433E-4-2.9668277930146175E-11i     -4.0001613531211964E-4-3.164211182335276E-11i     -4.3818046516282453E-4   -4.000161460390492E-4
0.009847695390781563      0.0025                   -4.3030467494404256E-4-2.964243105015782E-11i     -3.9663286294877077E-4-3.1428231608015996E-11i    -4.3030468499306363E-4   -3.966328736031932E-4
0.009895791583166332      0.0025                   -4.224288947830457E-4-2.9616584170169356E-11i     -3.931388362976951E-4-3.1214480640851235E-11i     -4.2242890482330187E-4   -3.9313884687965485E-4
0.009943887775551103      0.0025                   -4.145531146220469E-4-2.959073729018078E-11i      -3.895356624344091E-4-3.100085704643156E-11i      -4.1455312465354184E-4   -3.895356729439481E-4
0.009991983967935873      0.0025                   -4.0667733446104635E-4-2.9564890410192395E-11i    -3.858249174919404E-4-3.078735898543945E-11i      -4.0667734448377835E-4   -3.8582492792910237E-4
0.010040080160320642      0.0025                   -3.988015543000471E-4-2.953904353020392E-11i      -3.8200814740196675E-4-3.0573984653801575E-11i    -3.988015643140207E-4    -3.820081577667934E-4
0.01008817635270541       0.0025                   -3.9092577413904787E-4-2.951319665021551E-11i     -3.7808686861475117E-4-3.036073228184908E-11i     -3.9092578414425677E-4   -3.780868789072832E-4
0.01013627254509018       0.0025                   -3.8304999397805167E-4-2.9487349770226986E-11i    -3.7406256879858173E-4-3.014760013350092E-11i     -3.8305000397449674E-4   -3.740625790188608E-4
0.01018436873747495       0.0025                   -3.75174213817052E-4-2.9461502890238564E-11i      -3.6993670751939113E-4-2.993458650547121E-11i     -3.751742238047393E-4    -3.6993671766745716E-4
0.01023246492985972       0.0025                   -3.672984336560471E-4-2.9435656010250245E-11i     -3.657107169012212E-4-2.97216897264979E-11i       -3.6729844363497495E-4   -3.6571072697711397E-4
0.01028056112224449       0.0025                   -3.594226534950505E-4-2.940980913026167E-11i      -3.6138600226812617E-4-2.950890815659459E-11i     -3.594226634652136E-4    -3.6138601227188327E-4
0.010328657314629258      0.0025                   -3.515468733340521E-4-2.938396225027341E-11i      -3.5696394276815935E-4-2.929624018632116E-11i     -3.5154688329545403E-4   -3.5696395269982134E-4
0.010376753507014029      0.0025                   -3.436710931730507E-4-2.9358115370285094E-11i     -3.524458919800066E-4-2.908368423607669E-11i      -3.4367110312568793E-4   -3.524459018396119E-4
0.010424849699398797      0.0025                   -3.3423387004773565E-4-2.9283062609567344E-11i    -3.5043579203336713E-4-2.8947714973225563E-11i    -3.34233879974936E-4     -3.504358018468714E-4
0.010472945891783568      0.0025                   -3.281953813521984E-4-2.9256224669068853E-11i     -3.4416222725044233E-4-2.8754526254287883E-11i    -3.281953912702988E-4    -3.4416223699845674E-4
0.010521042084168337      0.0025                   -3.221568926566631E-4-2.92293867285703E-11i       -3.3778930492833634E-4-2.856152712940456E-11i     -3.221569025656642E-4    -3.3778931461092473E-4
0.010569138276553106      0.0025                   -3.1507460200887335E-4-2.915223447312157E-11i     -3.3033514944651133E-4-2.828876809479377E-11i     -3.1507461189171854E-4   -3.30335159036627E-4
0.010617234468937876      0.0025                   -3.103416073637693E-4-2.911341120165084E-11i      -3.2771688441295897E-4-2.809485192580797E-11i     -3.103416172334536E-4    -3.2771689393733467E-4
0.010665330661322647      0.0025                   -3.056086127186591E-4-2.9074587930180523E-11i     -3.250210063559041E-4-2.7901116815574286E-11i     -3.0560862257518137E-4   -3.2502101581460314E-4
0.010713426853707415      0.0025                   -3.008756180735568E-4-2.903576465870972E-11i      -3.22248560568595E-4-2.770756032559063E-11i       -3.008756279169163E-4    -3.222485699616769E-4
0.010761523046092184      0.0025                   -2.9614262342845057E-4-2.8996941387239087E-11i    -3.19400573657472E-4-2.7514180060948942E-11i      -2.9614263325864994E-4   -3.1940058298499606E-4
0.010809619238476955      0.0025                   -2.9140962878334306E-4-2.895811811576861E-11i     -3.164780539578882E-4-2.732097366936428E-11i      -2.9140963860038217E-4   -3.1647806321991365E-4
0.010857715430861723      0.0025                   -2.866766341382386E-4-2.8919294844297818E-11i     -3.1348199193879705E-4-2.712793884023112E-11i     -2.866766439421158E-4    -3.1348200113538147E-4
0.010905811623246494      0.0025                   -2.8194363949313086E-4-2.8880471572827203E-11i    -3.104133605967072E-4-2.6935073303704417E-11i     -2.8194364928384446E-4   -3.104133697279094E-4
0.010953907815631263      0.0025                   -2.7721064484802563E-4-2.884164830135673E-11i     -3.072731158392754E-4-2.6742374829804875E-11i     -2.7721065462557983E-4   -3.072731249051513E-4
0.011002004008016032      0.0025                   -2.724776502029192E-4-2.880282502988605E-11i      -3.0406219685883296E-4-2.6549841227547208E-11i    -2.724776599673125E-4    -3.0406220585943824E-4
0.011050100200400802      0.0025                   -2.677446555578128E-4-2.8764001758415423E-11i     -3.0078152649616195E-4-2.635747034409152E-11i     -2.677446653090456E-4    -3.007815354315512E-4
0.011098196392785573      0.0025                   -2.630116609127096E-4-2.8725178486944873E-11i     -2.974320115947996E-4-2.6165260063917366E-11i     -2.630116706507789E-4    -2.974320204650273E-4
0.011146292585170341      0.0025                   -2.582786662676008E-4-2.86863552154744E-11i       -2.940145433461849E-4-2.597320830801767E-11i      -2.5827867599251004E-4   -2.940145521513056E-4
0.01119438877755511       0.0025                   -2.535456716224985E-4-2.864753194400385E-11i      -2.905299976259025E-4-2.5781313033114944E-11i     -2.5354568133424205E-4   -2.905300063659702E-4
0.011242484969939879      0.0025                   -2.488126769773914E-4-2.860870867253317E-11i      -2.8697923532128696E-4-2.558957223089712E-11i     -2.488126866759749E-4    -2.869792439963531E-4
0.01129058116232465       0.0025                   -2.4407968233228433E-4-2.8569885401062594E-11i    -2.8336310265066934E-4-2.539798392727234E-11i     -2.4407969201770737E-4   -2.8336311126078484E-4
0.01133867735470942       0.0025                   -2.393466876871777E-4-2.8531062129592018E-11i     -2.796824314744856E-4-2.520654618164318E-11i      -2.3934669735943895E-4   -2.796824400197048E-4
0.011386773547094189      0.0025                   -2.3461369304207235E-4-2.8492238858121545E-11i    -2.7593803959851087E-4-2.501525708620009E-11i     -2.34613702701174E-4     -2.7593804807888087E-4
0.011434869739478958      0.0025                   -2.2737794339447882E-4-2.840523575206253E-11i     -2.76246610774755E-4-2.4902080928523774E-11i      -2.2737795302408366E-4   -2.762466192167514E-4
0.011482965931863728      0.0025                   -2.237354720314871E-4-2.83666066700915E-11i       -2.71896033943251E-4-2.4727650720433377E-11i      -2.2373548164799566E-4   -2.7189604232611645E-4
0.011531062124248499      0.0025                   -2.1805111652573863E-4-2.8281613045853153E-11i    -2.642752927814339E-4-2.447767612853637E-11i      -2.1805112611343212E-4   -2.6427530107955605E-4
0.011579158316633267      0.0025                   -2.1508948228267009E-4-2.8233184659344676E-11i    -2.621845331778699E-4-2.4303724071097628E-11i     -2.1508949185394506E-4   -2.6218454141702205E-4
0.011627254509018036      0.0025                   -2.1212784803959763E-4-2.8184756272836315E-11i    -2.600417600057311E-4-2.4129978749441014E-11i     -2.1212785759445768E-4   -2.600417681859821E-4
0.011675350701402805      0.0025                   -2.0916621379652768E-4-2.813632788632802E-11i     -2.578476160691562E-4-2.3956437608644744E-11i     -2.091662233349701E-4    -2.5784762419057413E-4
0.011723446893787575      0.0025                   -2.062045795534574E-4-2.80878994998198E-11i       -2.5560273362370536E-4-2.378309813571395E-11i     -2.0620458907548049E-4   -2.556027416863594E-4
0.011771543086172346      0.0025                   -2.0324294531038478E-4-2.803947111331156E-11i     -2.5330773459186046E-4-2.3609957858723475E-11i    -2.0324295481599026E-4   -2.5330774259581907E-4
0.011819639278557115      0.0025                   -2.0028131106731287E-4-2.7991042726803285E-11i    -2.509632307732512E-4-2.343701434598324E-11i      -2.0028132055650074E-4   -2.5096323871858027E-4
0.011867735470941883      0.0025                   -1.9731967682424395E-4-2.7942614340294872E-11i    -2.4856982404978145E-4-2.3264265205223086E-11i    -1.973196862970133E-4    -2.485698319365471E-4
0.011915831663326654      0.0025                   -1.943580425811716E-4-2.7894185953786614E-11i     -2.4612810658579236E-4-2.3091708082796112E-11i    -1.943580520375242E-4    -2.461281144140599E-4
0.011963927855711423      0.0025                   -1.9139640833810046E-4-2.784575756727824E-11i     -2.4363866102337743E-4-2.291934066290343E-11i     -1.9139641777803627E-4   -2.4363866879321142E-4
0.012012024048096193      0.0025                   -1.884347740950304E-4-2.7797329180769905E-11i     -2.411020606730312E-4-2.2747160666835862E-11i     -1.884347835185479E-4    -2.4110206838449407E-4
0.012060120240480962      0.0025                   -1.8547313985196054E-4-2.7748900794261712E-11i    -2.385188696997114E-4-2.2575165852234626E-11i     -1.8547314925906108E-4   -2.3851887735286718E-4
0.012108216432865731      0.0025                   -1.8251150560888744E-4-2.7700472407753364E-11i    -2.3588964330448653E-4-2.2403354012369315E-11i    -1.8251151499957055E-4   -2.3588965089939686E-4
0.012156312625250501      0.0025                   -1.7954987136581608E-4-2.765204402124517E-11i     -2.3321492790186074E-4-2.2231722975432887E-11i    -1.795498807400809E-4    -2.3321493543858654E-4
0.012204408817635272      0.0025                   -1.76588237122746E-4-2.7603615634736952E-11i      -2.3049526129290641E-4-2.206027060385381E-11i     -1.765882464805921E-4    -2.304952687715082E-4
0.01225250501002004       0.0025                   -1.7362660287967378E-4-2.7555187248228527E-11i    -2.2773117283432493E-4-2.188899479362366E-11i     -1.7362661222110375E-4   -2.2773118025486424E-4
0.01230060120240481       0.0025                   -1.706649686366024E-4-2.7506758861720256E-11i     -2.249231836035252E-4-2.17178934736423E-11i       -1.706649779616128E-4    -2.249231909660595E-4
0.01234869739478958       0.0025                   -1.677033343935319E-4-2.7458330475211882E-11i     -2.2207180655987708E-4-2.1546964605074512E-11i    -1.6770334370212704E-4   -2.2207181386446316E-4
0.012396793587174349      0.0025                   -1.647417001504614E-4-2.740990208870356E-11i      -2.191775467021679E-4-2.1376206180726852E-11i     -1.6474170944263695E-4   -2.191775539488661E-4
0.01244488977955912       0.0025                   -1.5985565116912923E-4-2.731960496289269E-11i     -2.1966708410341094E-4-2.1277923956662463E-11i    -1.5985566043069254E-4   -2.1966709131679096E-4
0.012492985971943888      0.0025                   -1.5753306663765076E-4-2.7272444083420986E-11i    -2.1663716565528443E-4-2.1120776477832706E-11i    -1.5753307588322663E-4   -2.166371728153915E-4
0.012541082164328657      0.0025                   -1.535528079275048E-4-2.7181114902418958E-11i     -2.11234077240087E-4-2.0898221540468724E-11i      -1.5355281714212105E-4   -2.1123408432475112E-4
0.012589178356713427      0.0025                   -1.516196554409233E-4-2.712620254165298E-11i      -2.0958580769823962E-4-2.0743340553013925E-11i    -1.5161966463692403E-4   -2.09585814730398E-4
0.012637274549098198      0.0025                   -1.4968650295434083E-4-2.707129018088704E-11i     -2.0790237083716538E-4-2.0588676609705874E-11i    -1.4968651213172635E-4   -2.0790237781688944E-4
0.012685370741482967      0.0025                   -1.4775335046775901E-4-2.7016377820121062E-11i    -2.0618416666428295E-4-2.0434227241796113E-11i    -1.4775335962652922E-4   -2.0618417359164688E-4
0.012733466933867735      0.0025                   -1.458201979811784E-4-2.6961465459355042E-11i     -2.0443158914346728E-4-2.027999001783519E-11i     -1.4582020712133157E-4   -2.0443159601854407E-4
0.012781563126252504      0.0025                   -1.4388704549459517E-4-2.690655309858912E-11i     -2.0264502630875243E-4-2.012596254297156E-11i     -1.4388705461613392E-4   -2.0264503313161206E-4
0.012829659318637275      0.0025                   -1.419538930080135E-4-2.685164073782325E-11i      -2.0082486037547264E-4-1.9972142458265118E-11i    -1.4195390211093527E-4   -2.0082486714618475E-4
0.012877755511022045      0.0025                   -1.4002074052143142E-4-2.679672837705711E-11i     -1.989714678489368E-4-1.981852744001632E-11i      -1.40020749605737E-4     -1.9897147456757072E-4
0.012925851703406814      0.0025                   -1.3808758803484928E-4-2.6741816016291275E-11i    -1.970852196306483E-4-1.9665115199111565E-11i     -1.3808759710053867E-4   -1.9708522629727462E-4
0.012973947895791583      0.0025                   -1.3615443554826768E-4-2.6686903655525167E-11i    -1.9516648112218873E-4-1.951190348038081E-11i     -1.3615444459534262E-4   -1.9516648773687493E-4
0.013022044088176353      0.0025                   -1.3422128306168576E-4-2.6631991294759202E-11i    -1.9321561232676782E-4-1.9358890061971968E-11i    -1.342212920901445E-4    -1.9321561888958034E-4
0.013070140280561124      0.0025                   -1.3228813057510427E-4-2.657707893399329E-11i     -1.9123296794856917E-4-1.9206072754736815E-11i    -1.3228813958494705E-4   -1.9123297445957437E-4