% Model:              FEA.mph
% Version:            COMSOL 5.1.0.145
% Date:               Jun 19 2022, 16:35
% Dimension:          2
% Nodes:              500
% Expressions:        2
% Description:        Magnetic flux density, r component, Magnetic flux density, z component
% Length unit:        m
% r                       z                        mf.Br (T) @ freq=20000                            mf.Bz (T) @ freq=20000
0.006                     0.0025                   -0.0016001804864384486+0.010753997717511088i      -6.082828036170614E-4+0.0012826813075665598i
0.00604809619238477       0.0025                   -0.0015716319756312069+0.010483553269732892i      -6.248073611873692E-4+0.0014932941993625248i
0.006096192384769539      0.0025                   -0.001543083464823966+0.010213108821954711i       -6.41277455415425E-4+0.0017034430385703004i
0.006144288577154309      0.0025                   -0.001514534954016725+0.00994266437417652i        -6.576943652838242E-4+0.0019131387227066194i
0.006192384769539079      0.0025                   -0.001478494995909319+0.009602772243180388i       -6.871688149695722E-4+0.002243773080588785i
0.0062404809619238475     0.0025                   -0.0014447080147944227+0.00928703649561785i       -6.79622015532524E-4+0.002221657875263258i
0.006288577154308617      0.0025                   -0.001410921033679526+0.008971300748055286i       -6.718429433107099E-4+0.00219735302136402i
0.006336673346693387      0.0025                   -0.0013771340525646286+0.008655565000492735i      -6.638368872479944E-4+0.002170908378061673i
0.0063847695390781565     0.0025                   -0.001343347071449732+0.008339829252930177i       -6.556089769227044E-4+0.002142372302178854i
0.006432865731462926      0.0025                   -0.001309560090334835+0.008024093505367626i       -6.471641885052148E-4+0.0021117917043529406i
0.006480961923847696      0.0025                   -0.0012757731092199389+0.007708357757805082i      -6.385073504502682E-4+0.0020792121026976095i
0.006529058116232465      0.0025                   -0.0012419861281050414+0.007392622010242517i      -6.296431489376985E-4+0.00204467767409312i
0.006577154308617234      0.0025                   -0.001253965255540962+0.007512119605187349i       -6.617050330201803E-4+0.0024004544075435542i
0.006625250501002004      0.0025                   -0.0012331080228488937+0.00732108054125245i       -6.647219411865759E-4+0.0024823350883331216i
0.0066733466933867735     0.0025                   -0.001212250790156827+0.007130041477317594i       -6.676259210488032E-4+0.0025631819360769537i
0.006721442885771543      0.0025                   -0.00119139355746476+0.006939002413382719i        -6.70419396828059E-4+0.0026430171439709035i
0.006769539078156313      0.0025                   -0.0011705363247726914+0.006747963349447822i      -6.731047238511575E-4+0.00272186227449858i
0.006817635270541082      0.0025                   -0.001149679092080624+0.006556924285512966i       -6.756841909806606E-4+0.0027997382816781938i
0.006865731462925852      0.0025                   -0.001134731653948234+0.00642568300085661i        -6.546389572816688E-4+0.0026440144281357158i
0.006913827655310622      0.0025                   -0.001117962722642812+0.006276682861124679i       -6.502366712698951E-4+0.0026509401780641585i
0.006961923847695391      0.0025                   -0.0011011937913373894+0.006127682721392723i      -6.456920263035269E-4+0.0026565170372957465i
0.00701002004008016       0.0025                   -0.0010844248600319671+0.0059786825816607716i     -6.410079525840309E-4+0.0026607727703045364i
0.00705811623246493       0.0025                   -0.0010676559287265445+0.005829682441928817i      -6.361873004436687E-4+0.002663734384781584i
0.0071062124248496995     0.0025                   -0.0010508869974211225+0.005680682302196864i      -6.312328430483459E-4+0.002665428157245339i
0.007154308617234469      0.0025                   -0.0010341180661156998+0.005531682162464888i      -6.261472789914402E-4+0.002665879657618734i
0.007202404809619239      0.0025                   -0.0010173491348102774+0.005382682022732947i      -6.209332347837008E-4+0.0026651137728217872i
0.007250501002004008      0.0025                   -0.001000580203504855+0.005233681883000982i       -6.155932672440501E-4+0.0026631547294250547i
0.007298597194388778      0.0025                   -9.947158156832082E-4+0.0051966395374137i         -6.0499575749966E-4+0.002607362736665421i
0.007346693386773547      0.0025                   -9.787333087232235E-4+0.005053817747740406i       -5.975092999183873E-4+0.002584636790838049i
0.007394789579158317      0.0025                   -9.627508017632377E-4+0.004910995958067106i       -5.898925958553838E-4+0.00256067447484554i
0.007442885771543086      0.0025                   -9.46768294803253E-4+0.0047681741683938406i       -5.821481702828317E-4+0.0025354997570917422i
0.007490981963927856      0.0025                   -9.25348648798398E-4+0.004574896145002181i        -5.889475102775491E-4+0.002645262899452534i
0.0075390781563126254     0.0025                   -9.127248505654411E-4+0.004465363831294444i       -5.777524964975213E-4+0.002581875086186252i
0.007587174348697395      0.0025                   -9.001010523324842E-4+0.0043558315175867045i      -5.664150740086244E-4+0.0025171015590215165i
0.007635270541082165      0.0025                   -8.884393450223198E-4+0.00427034943493457i        -5.573433741110684E-4+0.0024953736660827228i
0.0076833667334669335     0.0025                   -8.786653139373823E-4+0.0041913912225939425i      -5.51649823983724E-4+0.002484613667407136i
0.007731462925851704      0.0025                   -8.688912828524444E-4+0.004112433010253297i       -5.458579447706706E-4+0.0024728888846936455i
0.007779559118236473      0.0025                   -8.591172517675072E-4+0.004033474797912683i       -5.399695601952916E-4+0.0024602172119274567i
0.007827655310621243      0.0025                   -8.493432206825691E-4+0.003954516585572039i       -5.339864491582748E-4+0.002446616103303117i
0.007875751503006012      0.0025                   -8.395691895976319E-4+0.003875558373231411i       -5.279103471062457E-4+0.002432102586653136i
0.007923847695390781      0.0025                   -8.297951585126943E-4+0.003796600160890798i       -5.217429473505552E-4+0.0024166932763876967i
0.007971943887775551      0.0025                   -8.200211274277565E-4+0.003717641948550153i       -5.154859023383275E-4+0.002400404385965881i
0.008020040080160322      0.0025                   -8.102470963428188E-4+0.0036386837362094946i      -5.091408248777774E-4+0.0023832517399182632i
0.00806813627254509       0.0025                   -8.004730652578812E-4+0.003559725523868896i       -5.027092893196937E-4+0.002365250785439336i
0.00811623246492986       0.0025                   -7.906990341729437E-4+0.0034807673115282572i      -4.96192832696922E-4+0.0023464166035678693i
0.00816432865731463       0.0025                   -7.809250030880059E-4+0.003401809099187617i       -4.895929558235652E-4+0.0023267639199720945i
0.008212424849699399      0.0025                   -7.711509720030685E-4+0.0033228508868469835i      -4.829111243555639E-4+0.002306307115355787i
0.00826052104208417       0.0025                   -7.613769409181305E-4+0.0032438926745063483i      -4.7614876981422134E-4+0.002285060235500947i
0.008308617234468938      0.0025                   -7.51602909833193E-4+0.003164934462165727i        -4.693072905741836E-4+0.0022630370009616646i
0.008356713426853707      0.0025                   -7.418288787482558E-4+0.003085976249825099i       -4.623880528172989E-4+0.002240250816423144i
0.008404809619238477      0.0025                   -7.32054847663318E-4+0.003007018037484443i        -4.553923914537264E-4+0.0022167147797394426i
0.008452905811623246      0.0025                   -7.230363020663554E-4+0.002979471509819068i       -4.4841024357905753E-4+0.0021984289598314193i
0.008501002004008017      0.0025                   -7.131697476957412E-4+0.002903275775515267i       -4.412896797819095E-4+0.0021746402594372194i
0.008549098196392785      0.0025                   -7.062867466652374E-4+0.0028067058147100057i      -4.34639409877354E-4+0.002144274780790355i
0.008597194388777554      0.0025                   -6.994866412290727E-4+0.002762417162541945i       -4.289712984110542E-4+0.0021274082913789044i
0.008645290581162325      0.0025                   -6.926865357929065E-4+0.002718128510373918i       -4.2324187556160145E-4+0.0021099055455730516i
0.008693386773547095      0.0025                   -6.858864303567417E-4+0.002673839858205848i       -4.1745215894531455E-4+0.0020917771036449186i
0.008741482965931864      0.0025                   -6.790863249205775E-4+0.00262955120603779i        -4.1160314378255457E-4+0.00207303329345345i
0.008789579158316633      0.0025                   -6.722862194844114E-4+0.002585262553869752i       -4.056958035104722E-4+0.0020536842168032395i
0.008837675350701403      0.0025                   -6.654861140482466E-4+0.002540973901701697i       -3.9973109037575003E-4+0.0020337397555956725i
0.008885771543086172      0.0025                   -6.586860086120814E-4+0.0024966852495336474i      -3.937099360080934E-4+0.002013209577780242i
0.008933867735470943      0.0025                   -6.51885903175916E-4+0.0024523965973656i          -3.8763325197519355E-4+0.001992103143113758i
0.008981963927855711      0.0025                   -6.450857977397511E-4+0.002408107945197551i       -3.815019303198664E-4+0.0019704297087343673i
0.00903006012024048       0.0025                   -6.38285692303586E-4+0.0023638192930294953i       -3.7531684408001974E-4+0.0019481983345575958i
0.00907815631262525       0.0025                   -6.314855868674212E-4+0.002319530640861432i       -3.690788477920963E-4+0.0019254178885007634i
0.009126252505010021      0.0025                   -6.24685481431256E-4+0.0022752419886933857i       -3.627887779785955E-4+0.0019020970515421982i
0.00917434869739479       0.0025                   -6.178853759950912E-4+0.0022309533365253327i      -3.5644745362026047E-4+0.0018782443226213865i
0.009222444889779559      0.0025                   -6.110852705589263E-4+0.0021866646843572805i      -3.5005567661348995E-4+0.0018538680233857114i
0.00927054108216433       0.0025                   -6.042851651227607E-4+0.0021423760321892353i      -3.436142322135123E-4+0.0018289763027894831i
0.009318637274549098      0.0025                   -5.974850596865958E-4+0.002098087380021185i       -3.3712388946383575E-4+0.0018035771415505601i
0.009366733466933869      0.0025                   -5.906849542504302E-4+0.0020537987278531292i      -3.3058540161246555E-4+0.0017776783564695876i
0.009414829659318637      0.0025                   -5.838848488142651E-4+0.0020095100756850805i      -3.239995065153662E-4+0.00175128760461694i
0.009462925851703406      0.0025                   -5.794368397976188E-4+0.001972785745421212i       -3.22354081466229E-4+0.0017391238678105593i
0.009511022044088177      0.0025                   -5.734535873861185E-4+0.0019399396200630928i      -3.1823871086624725E-4+0.0017327749418886364i
0.009559118236472947      0.0025                   -5.674703349746169E-4+0.0019070934947049908i      -3.140904782672176E-4+0.0017260598622632912i
0.009607214428857716      0.0025                   -5.614870825631163E-4+0.001874247369346868i       -3.0990987721605986E-4+0.0017189841281140565i
0.009655310621242485      0.0025                   -5.555038301516154E-4+0.0018414012439887592i      -3.056973914256327E-4+0.0017115531290477584i
0.009703406813627255      0.0025                   -5.515221709195346E-4+0.0018156415423879156i      -2.9832365052579195E-4+0.0016913082866973812i
0.009751503006012024      0.0025                   -5.465967453683915E-4+0.0017895309782969284i      -2.9319216570537147E-4+0.00167205506687i
0.009799599198396795      0.0025                   -5.416713198172485E-4+0.0017634204142059303i      -2.8802624286648987E-4+0.0016524088092093473i
0.009847695390781563      0.0025                   -5.367458942661054E-4+0.0017373098501149381i      -2.828263865955002E-4+0.0016323752725114814i
0.009895791583166332      0.0025                   -5.318204687149623E-4+0.001711199286023948i       -2.775930916690537E-4+0.0016119601036153723i
0.009943887775551103      0.0025                   -5.268950431638194E-4+0.0016850887219329528i      -2.7232684329134125E-4+0.0015911688401103405i
0.009991983967935873      0.0025                   -5.219696176126761E-4+0.0016589781578419576i      -2.6702811732447576E-4+0.0015700069129654629i
0.010040080160320642      0.0025                   -5.170441920615333E-4+0.0016328675937509656i      -2.61697380512253E-4+0.001548479649083362i
0.01008817635270541       0.0025                   -5.121187665103903E-4+0.0016067570296599753i      -2.563350906975143E-4+0.001526592273780888i
0.01013627254509018       0.0025                   -5.071933409592475E-4+0.0015806464655689803i      -2.50941697033321E-4+0.001504349913199259i
0.01018436873747495       0.0025                   -5.022679154081042E-4+0.0015545359014779887i      -2.4551764018814187E-4+0.0014817575966458545i
0.01023246492985972       0.0025                   -4.973424898569612E-4+0.0015284253373869907i      -2.4006335254525866E-4+0.0014588202588699814i
0.01028056112224449       0.0025                   -4.924170643058177E-4+0.0015023147732960056i      -2.3457925839656777E-4+0.001435542742274754i
0.010328657314629258      0.0025                   -4.88734672940838E-4+0.0014820631976630236i       -2.3195671224949084E-4+0.0014253756641357976i
0.010376753507014029      0.0025                   -4.8403209270860676E-4+0.001461202335611608i      -2.2841879487512778E-4+0.001417019441026028i
0.010424849699398797      0.0025                   -4.793295124763759E-4+0.0014403414735601906i      -2.248612962947625E-4+0.0014084075890001785i
0.010472945891783568      0.0025                   -4.7462693224414486E-4+0.0014194806115087732i     -2.212844862839065E-4+0.0013995436299262206i
0.010521042084168337      0.0025                   -4.699243520119136E-4+0.0013986197494573593i      -2.176886296850365E-4+0.0013904310212722345i
0.010569138276553106      0.0025                   -4.6522177177968295E-4+0.0013777588874059436i     -2.1407398651983127E-4+0.0013810731575717402i
0.010617234468937876      0.0025                   -4.605191915474519E-4+0.001356898025354528i       -2.1044081209836522E-4+0.0013714733718491563i
0.010665330661322647      0.0025                   -4.5581661131522105E-4+0.0013360371633031123i     -2.067893571253463E-4+0.001361634937006694i
0.010713426853707415      0.0025                   -4.52453924329661E-4+0.0013215494176375205i       -2.0064462087040233E-4+0.0013392219457287022i
0.010761523046092184      0.0025                   -4.485423472364179E-4+0.001305192599134343i       -1.9675212515421231E-4+0.0013244288529783823i
0.010809619238476955      0.0025                   -4.446307701431749E-4+0.001288835780631163i       -1.9284131436151863E-4+0.001309387484367644i
0.010857715430861723      0.0025                   -4.4071919304993206E-4+0.0012724789621279822i     -1.889124318820443E-4+0.0012941011392434438i
0.010905811623246494      0.0025                   -4.368076159566888E-4+0.001256122143624808i       -1.849657168119744E-4+0.0012785730587504046i
0.010953907815631263      0.0025                   -4.328960388634458E-4+0.0012397653251216272i      -1.810014040482223E-4+0.0012628064271085328i
0.011002004008016032      0.0025                   -4.28984461770203E-4+0.0012234085066184486i       -1.770197243802132E-4+0.0012468043728574877i
0.011050100200400802      0.0025                   -4.250728846769598E-4+0.00120705168811527i        -1.730209045792751E-4+0.0012305699700683238i
0.011098196392785573      0.0025                   -4.2116130758371693E-4+0.0011906948696120924i     -1.6900516748570669E-4+0.0012141062395237816i
0.011146292585170341      0.0025                   -4.1724973049047417E-4+0.0011743380511089114i     -1.649727320935881E-4+0.0011974161498679357i
0.01119438877755511       0.0025                   -4.133381533972312E-4+0.001157981232605734i       -1.609238136334047E-4+0.001180502618726292i
0.011242484969939879      0.0025                   -4.094265763039879E-4+0.0011416244141025577i      -1.5685862365255392E-4+0.001163368513797044i
0.01129058116232465       0.0025                   -4.055149992107452E-4+0.0011252675955993763i      -1.527773700937915E-4+0.0011460166539145609i
0.01133867735470942       0.0025                   -4.028965511185356E-4+0.0011164886173588035i      -1.5153899330772554E-4+0.0011445230376119315i
0.011386773547094189      0.0025                   -3.9896047855791754E-4+0.0011024615565995606i     -1.4871233336550443E-4+0.0011364092776020734i
0.011434869739478958      0.0025                   -3.9502440599729926E-4+0.0010884344958403246i     -1.458754363708743E-4+0.0011281254793706445i
0.011482965931863728      0.0025                   -3.910883334366814E-4+0.0010744074350810835i      -1.4302843095695308E-4+0.0011196737795235883i
0.011531062124248499      0.0025                   -3.8715226087606336E-4+0.0010603803743218423i     -1.4017144361074235E-4+0.0011110562790195813i
0.011579158316633267      0.0025                   -3.832161883154451E-4+0.0010463533135626046i      -1.3730459871768745E-4+0.0011022750439104343i
0.011627254509018036      0.0025                   -3.792801157548268E-4+0.0010323262528033703i      -1.344280186051568E-4+0.0010933321060630115i
0.011675350701402805      0.0025                   -3.7725522496671204E-4+0.0010277439333452989i     -1.275309316965057E-4+0.001063818520465224i
0.011723446893787575      0.0025                   -3.738300701058274E-4+0.001016429384353452i       -1.2493249259139073E-4+0.0010544850691671045i
0.011771543086172346      0.0025                   -3.704049152449436E-4+0.0010051148353616038i      -1.2232608071214017E-4+0.0010449965354515994i
0.011819639278557115      0.0025                   -3.669797603840587E-4+9.938002863697573E-4i       -1.1971179338661883E-4+0.0010353548124916482i
0.011867735470941883      0.0025                   -3.635546055231744E-4+9.824857373779096E-4i       -1.1708972636493175E-4+0.001025561762770469i
0.011915831663326654      0.0025                   -3.601294506622901E-4+9.711711883860598E-4i       -1.1445997385126983E-4+0.0010156192187009156i
0.011963927855711423      0.0025                   -3.5670429580140513E-4+9.598566393942149E-4i      -1.1182262853498505E-4+0.0010055289832298967i
0.012012024048096193      0.0025                   -3.5327914094052094E-4+9.485420904023654E-4i      -1.0917778162091356E-4+9.952928304283E-4i
0.012060120240480962      0.0025                   -3.4985398607963604E-4+9.37227541410522E-4i       -1.0652552285897903E-4+9.849125060667873E-4i
0.012108216432865731      0.0025                   -3.464288312187518E-4+9.259129924186755E-4i       -1.0386594057308812E-4+9.743897281778446E-4i
0.012156312625250501      0.0025                   -3.430036763578674E-4+9.145984434268252E-4i       -1.0119912168934114E-4+9.637261876045279E-4i
0.012204408817635272      0.0025                   -3.395785214969833E-4+9.032838944349761E-4i       -9.852515176357501E-5+9.529235485362138E-4i
0.01225250501002004       0.0025                   -3.361533666360987E-4+8.91969345443131E-4i        -9.584411500825749E-5+9.419834490317193E-4i
0.01230060120240481       0.0025                   -3.3272821177521457E-4+8.806547964512789E-4i      -9.315609431874861E-5+9.309075015301842E-4i
0.01234869739478958       0.0025                   -3.2930305691433E-4+8.69340247459438E-4i          -9.046117129895497E-5+9.196972933499664E-4i
0.012396793587174349      0.0025                   -3.25877902053445E-4+8.580256984675903E-4i        -8.775942628637662E-5+9.083543871759861E-4i
0.01244488977955912       0.0025                   -3.224527471925602E-4+8.467111494757425E-4i       -8.505093837658158E-5+8.968803215357097E-4i
0.012492985971943888      0.0025                   -3.2199875089948863E-4+8.537667516891299E-4i      -8.105379036550118E-5+8.774338003477495E-4i
0.012541082164328657      0.0025                   -3.1947678679515265E-4+8.468296486845188E-4i      -8.070291477975116E-5+8.843793318428291E-4i
0.012589178356713427      0.0025                   -3.1666543611656554E-4+8.322068491532718E-4i      -7.854635152765231E-5+8.736926117016172E-4i
0.012637274549098198      0.0025                   -3.137974007114995E-4+8.242547877593809E-4i       -7.63250018372436E-5+8.652717915920876E-4i
0.012685370741482967      0.0025                   -3.10929365306435E-4+8.163027263654852E-4i        -7.409915053426964E-5+8.567400739703062E-4i
0.012733466933867735      0.0025                   -3.080613299013702E-4+8.083506649715934E-4i       -7.186884862850419E-5+8.480987154652964E-4i
0.012781563126252504      0.0025                   -3.05193294496304E-4+8.003986035777014E-4i        -6.963414636193482E-5+8.393489537916492E-4i
0.012829659318637275      0.0025                   -3.023252590912394E-4+7.924465421838098E-4i       -6.739509322315618E-5+8.304920081040215E-4i
0.012877755511022045      0.0025                   -2.9945722368617515E-4+7.84494480789911E-4i       -6.515173796143671E-5+8.215290793437424E-4i
0.012925851703406814      0.0025                   -2.9658918828110977E-4+7.765424193960197E-4i      -6.290412860047427E-5+8.12461350577675E-4i
0.012973947895791583      0.0025                   -2.937211528760442E-4+7.685903580021275E-4i       -6.0652312451844875E-5+8.032899873295178E-4i
0.013022044088176353      0.0025                   -2.908531174709792E-4+7.606382966082363E-4i       -5.839633612815504E-5+7.940161379037738E-4i
0.013070140280561124      0.0025                   -2.879850820659137E-4+7.526862352143435E-4i       -5.613624555590042E-5+7.846409337025897E-4i
0.013118236472945893      0.0025                   -2.85117046660849E-4+7.447341738204519E-4i        -5.3872085988042684E-5+7.751654895356013E-4i
0.013166332665330661      0.0025                   -2.822490112557841E-4+7.367821124265568E-4i       -5.1603902016316146E-5+7.655909039229753E-4i
0.01321442885771543       0.0025                   -2.793809758507193E-4+7.288300510326622E-4i       -4.933173758325572E-5+7.559182593918719E-4i
0.0132625250501002        0.0025                   -2.765129404456542E-4+7.208779896387685E-4i       -4.705563599397071E-5+7.461486227664275E-4i
0.013310621242484971      0.0025                   -2.7364490504058867E-4+7.129259282448773E-4i      -4.477563992766086E-5+7.362830454514596E-4i
0.01335871743486974       0.0025                   -2.707768696355241E-4+7.049738668509836E-4i       -4.2491791448885904E-5+7.263225637100394E-4i
0.013406813627254509      0.0025                   -2.68749267771543E-4+7.003801939752981E-4i        -4.2800022101884095E-5+7.258654798211235E-4i
0.01345490981963928       0.0025                   -2.6597113903659327E-4+6.934471429336873E-4i      -4.144971356286582E-5+7.20082405186307E-4i
0.013503006012024048      0.0025                   -2.6319301030164376E-4+6.865140918920799E-4i      -4.00989109477768E-5+7.142225439688776E-4i
0.013551102204408819      0.0025                   -2.604148815666949E-4+6.795810408504691E-4i       -3.8747619517409554E-5+7.082867137721999E-4i
0.013599198396793587      0.0025                   -2.5763675283174475E-4+6.7264798980886E-4i        -3.739584445813336E-5+7.022757206331847E-4i
0.013647294589178356      0.0025                   -2.548586240967959E-4+6.657149387672501E-4i       -3.604359088320359E-5+6.961903592261193E-4i
0.013695390781563127      0.0025                   -2.528908334679854E-4+6.613091346173027E-4i       -3.335451909178299E-5+6.858344468208715E-4i
0.013743486973947897      0.0025                   -2.505677990047398E-4+6.557203932553305E-4i       -3.174965188347218E-5+6.789016467760326E-4i
0.013791583166332666      0.0025                   -2.482447645414947E-4+6.501316518933572E-4i       -3.0143496701197316E-5+6.718945172523626E-4i
0.013839679358717435      0.0025                   -2.4592173007824945E-4+6.445429105313836E-4i      -2.853606697301104E-5+6.648138331879573E-4i
0.013887775551102205      0.0025                   -2.4359869561500416E-4+6.389541691694094E-4i      -2.6927375940948465E-5+6.576603587858355E-4i
0.013935871743486974      0.0025                   -2.412756611517591E-4+6.33365427807436E-4i        -2.5317436664238712E-5+6.504348476991937E-4i
0.013983967935871745      0.0025                   -2.3895262668851392E-4+6.277766864454614E-4i      -2.3706262022448165E-5+6.431380432128235E-4i
0.014032064128256513      0.0025                   -2.3662959222526855E-4+6.221879450834889E-4i      -2.2093864718560272E-5+6.357706784208086E-4i
0.014080160320641284      0.0025                   -2.3430655776202335E-4+6.165992037215147E-4i      -2.0480257281989245E-5+6.283334764005783E-4i
0.014128256513026053      0.0025                   -2.31983523298778E-4+6.110104623595406E-4i        -1.886545207153788E-5+6.208271503833954E-4i
0.014176352705410821      0.0025                   -2.2966048883553295E-4+6.054217209975664E-4i      -1.7249461278287808E-5+6.132524039214007E-4i
0.014224448897795592      0.0025                   -2.2733745437228755E-4+5.998329796355942E-4i      -1.5632296928439602E-5+6.056099310512177E-4i
0.01427254509018036       0.0025                   -2.2501441990904227E-4+5.942442382736199E-4i      -1.4013970886085547E-5+5.979004164543167E-4i
0.014320641282565131      0.0025                   -2.2320979683853096E-4+5.907393123822033E-4i      -1.3503068206258413E-5+5.945618180961215E-4i
0.0143687374749499        0.0025                   -2.2088276810134787E-4+5.854893206107157E-4i      -1.2548750086530339E-5+5.896018430103073E-4i
0.01441683366733467       0.0025                   -2.1855573936416456E-4+5.802393288392282E-4i      -1.159547955165018E-5+5.845862424726081E-4i
0.01446492985971944       0.0025                   -2.162287106269817E-4+5.749893370677415E-4i       -1.0643246151895402E-5+5.795155713503727E-4i
0.014513026052104208      0.0025                   -2.1390168188979903E-4+5.697393452962513E-4i      -9.692039576060922E-6+5.743903771556296E-4i
0.014561122244488979      0.0025                   -2.1157465315261616E-4+5.644893535247646E-4i      -8.741849649179318E-6+5.69211200166551E-4i
0.014609218436873747      0.0025                   -2.0924762441543307E-4+5.592393617532771E-4i      -7.79266633027333E-6+5.639785735465424E-4i
0.014657314629258518      0.0025                   -2.0692059567824998E-4+5.539893699817895E-4i      -6.844479710159444E-6+5.586930234609531E-4i
0.014705410821643287      0.0025                   -2.0543503538939998E-4+5.515751279076321E-4i      -4.114304258237008E-6+5.47328546655604E-4i
0.014753507014028057      0.0025                   -2.0341918950423808E-4+5.471560204430268E-4i      -3.1681872901519415E-6+5.424717644897268E-4i
0.014801603206412826      0.0025                   -2.0140334361907648E-4+5.427369129784184E-4i      -2.223094786538477E-6+5.375655107374884E-4i
0.014849699398797595      0.0025                   -1.9938749773391458E-4+5.383178055138121E-4i      -1.2790167930853947E-6+5.326102660944639E-4i
0.014897795591182365      0.0025                   -1.973716518487527E-4+5.338986980492046E-4i       -3.3594348402920084E-7+5.276065050487061E-4i
0.014945891783567134      0.0025                   -1.953558059635911E-4+5.294795905845983E-4i       6.061348399169833E-7+5.225546959806038E-4i
0.014993987975951905      0.0025                   -1.9333996007842876E-4+5.25060483119992E-4i       1.5472277535894159E-6+5.174553012608649E-4i
0.015042084168336673      0.0025                   -1.9132411419326713E-4+5.206413756553847E-4i      2.4873447093653865E-6+5.123087773465803E-4i
0.015090180360721444      0.0025                   -1.8930826830810486E-4+5.162222681907793E-4i      3.4264950391120426E-6+5.071155748754643E-4i
0.015138276553106213      0.0025                   -1.8729242242294329E-4+5.118031607261712E-4i      4.3646879561051835E-6+5.018761387583064E-4i
0.015186372745490983      0.0025                   -1.8527657653778112E-4+5.073840532615653E-4i      5.30193255690165E-6+4.965909082696515E-4i
0.015234468937875752      0.0025                   -1.8326073065261944E-4+5.029649457969588E-4i      6.2382378231868745E-6+4.91260317136778E-4i
0.01528256513026052       0.0025                   -1.8124488476745765E-4+4.985458383323497E-4i      7.173612623579816E-6+4.858847936269789E-4i
0.015330661322645291      0.0025                   -1.7922903888229543E-4+4.941267308677449E-4i      8.108065715405019E-6+4.804647606332113E-4i
0.01537875751503006       0.0025                   -1.7721319299713407E-4+4.897076234031375E-4i      9.041605746437206E-6+4.75000635758139E-4i
0.01542685370741483       0.0025                   -1.7519734711197153E-4+4.8528851593853317E-4i     9.974241256605876E-6+4.694928313966026E-4i
0.0154749498997996        0.0025                   -1.7318150122681082E-4+4.8086940847392404E-4i     1.0905980679672836E-5+4.639417548165393E-4i
0.01552304609218437       0.0025                   -1.720665498376908E-4+4.797810051523563E-4i       1.039150405489122E-5+4.6362164251689776E-4i
0.015571142284569139      0.0025                   -1.706454357028865E-4+4.77690921177171E-4i        1.1671280626635506E-5+4.5670496801136415E-4i
0.01561923847695391       0.0025                   -1.6895366794378178E-4+4.7416560542474736E-4i     1.2411000457766597E-5+4.524197871459593E-4i
0.01566733466933868       0.0025                   -1.672619001846751E-4+4.706402896723278E-4i       1.3149308849520942E-5+4.480970593093501E-4i
0.015715430861723445      0.0025                   -1.6557013242557002E-4+4.6711497391990504E-4i     1.3886218760791338E-5+4.4373712923272243E-4i