% Model:              FEA.mph
% Version:            COMSOL 5.1.0.145
% Date:               Jun 19 2022, 16:35
% Dimension:          2
% Nodes:              10000
% Expressions:        1
% Description:        Current density, phi component
% Length unit:        m
% r                       z                        mf.Jphi (A/m^2) @ freq=20000
0                         -0.006                   -42.341953184466604-8.851673079888489i
3.0303030303030303E-4     -0.006                   -6111.958479963737+12377.65920289769i
6.060606060606061E-4      -0.006                   -12097.066395065327+24646.71079405105i
9.090909090909091E-4      -0.006                   -17997.665698489225+36798.30310038019i
0.0012121212121212121     -0.006                   -23762.000662948354+48798.024960702875i
0.0015151515151515152     -0.006                   -29271.554832431597+60501.1812589781i
0.0018181818181818182     -0.006                   -34522.37549927476+71893.51517040962i
0.002121212121212121      -0.006                   -39498.212400063494+82963.31514233096i
0.0024242424242424242     -0.006                   -44099.06148529702+93587.82290504943i
0.0027272727272727275     -0.006                   -48309.92147104249+103734.50471898215i
0.0030303030303030303     -0.006                   -52127.737695794865+113402.4452208314i
0.003333333333333333      -0.006                   -55484.385109634895+122518.62597674165i
0.0036363636363636364     -0.006                   -58371.61113693526+131037.53437027776i
0.00393939393939394       -0.006                   -60789.415777695925+138959.17040143942i
0.004242424242424242      -0.006                   -62708.89463750646+146258.47298057599i
0.004545454545454545      -0.006                   -64137.19498451968+152898.3126570682i
0.0048484848484848485     -0.006                   -65079.928358709774+158878.74078467785i
0.005151515151515152      -0.006                   -65526.85789023711+164194.3588341818i
0.005454545454545455      -0.006                   -65511.748544841495+168842.71235333264i
0.005757575757575757      -0.006                   -65056.09218094264+172828.3817206045i
0.006060606060606061      -0.006                   -64155.53008323051+176150.04463593848i
0.006363636363636364      -0.006                   -62850.732354191096+178830.85350257278i
0.006666666666666666      -0.006                   -61194.96468734214+180894.17705635435i
0.0069696969696969695     -0.006                   -59188.22708268357+182340.01529728324i
0.007272727272727273      -0.006                   -56857.55620793183+183196.3814581608i
0.007575757575757576      -0.006                   -54287.787627653684+183517.42564345975i
0.00787878787878788       -0.006                   -51481.64717071586+183304.195837855i
0.008181818181818182      -0.006                   -48451.81622201963+182573.22794375013i
0.008484848484848484      -0.006                   -45288.20267050395+181402.52673258504i
0.008787878787878787      -0.006                   -42005.886013877745+179801.94745415085i
0.00909090909090909       -0.006                   -38607.730849653184+177777.10516634973i
0.009393939393939394      -0.006                   -35164.73590318852+175407.81708037076i
0.009696969696969697      -0.006                   -31706.390562396162+172719.92856915214i
0.01                      -0.006                   -28232.694827276046+169713.4396326937i
0.010303030303030303      -0.006                   -24782.623870035397+166447.2902709263i
0.010606060606060607      -0.006                   -21396.57055114684+162969.21272472476i
0.01090909090909091       -0.006                   -18074.534870610325+159279.206994089i
0.011212121212121211      -0.006                   -14831.168155037894+155406.15667592798i
0.011515151515151515      -0.006                   -11702.680649565791+151413.58479723372i
0.011818181818181818      -0.006                   -8690.660702177092+147303.23525117742i
0.012121212121212121      -0.006                   -5798.678990252605+143084.8516775408i
0.012424242424242424      -0.006                   -3048.144468446467+138817.57005630108i
0.012727272727272728      -0.006                   -442.11124181493676+134510.03099639437i
0.013030303030303031      -0.006                   2019.0937545265842+130163.44321875958i
0.013333333333333332      -0.006                   4328.358478259258+125820.31178615426i
0.013636363636363636      -0.006                   6484.946340643729+121496.62345169272i
0.013939393939393939      -0.006                   8488.85734168002+117192.37821537498i
0.014242424242424242      -0.006                   10340.33756486927+112927.96805786248i
0.014545454545454545      -0.006                   12044.390119627711+108726.81743345747i
0.014848484848484849      -0.006                   13601.529893084768+104588.13039586098i
0.015151515151515152      -0.006                   15013.090382198208+100519.12781375142i
0.015454545454545455      -0.006                   16289.946039627488+96541.14995678465i
0.01575757575757576       -0.006                   17434.38818596789+92654.08937950151i
0.01606060606060606       -0.006                   18446.749284078625+88859.50921919043i
0.016363636363636365      -0.006                   19339.343365975576+85172.08663208444i
0.016666666666666666      -0.006                   20118.38500918086+81592.22756527446i
0.016969696969696968      -0.006                   20783.8742136945+78119.9320187605i
0.017272727272727273      -0.006                   21344.38343917024+74762.72581506163i
0.017575757575757574      -0.006                   21811.375893914425+71521.04068789801i
0.01787878787878788       -0.006                   22184.903459907004+68394.41524285875i
0.01818181818181818       -0.006                   22468.90371603188+65385.37792354958i
0.018484848484848486      -0.006                   22677.406940612742+62493.77021897784i
0.018787878787878787      -0.006                   22811.623782214905+59718.0775759587i
0.019090909090909092      -0.006                   22872.65380940911+57059.024844615524i
0.019393939393939394      -0.006                   22873.004190907443+54515.115580556354i
0.019696969696969695      -0.006                   22816.05446217234+52083.33228386077i
0.02                      -0.006                   22701.804623203774+49763.674954528724i
0.020303030303030302      -0.006                   22538.470232673815+47555.03802425813i
0.020606060606060607      -0.006                   22331.95372162312+45451.80499995112i
0.02090909090909091       -0.006                   22082.255090051716+43453.975881607796i
0.021212121212121213      -0.006                   21792.902141149676+41560.607445782174i
0.021515151515151515      -0.006                   21471.2275726849+39764.99326385788i
0.02181818181818182       -0.006                   21117.369219352455+38066.25897208235i
0.02212121212121212       -0.006                   20732.38125619159+36464.15193719182i
0.022424242424242423      -0.006                   20322.31710048757+34952.004392153074i
0.022727272727272728      -0.006                   19887.963916724017+33527.391808118526i
0.02303030303030303       -0.006                   19429.439492067246+32190.34281553175i
0.023333333333333334      -0.006                   18950.402504943573+30935.730476263125i
0.023636363636363636      -0.006                   18452.01536447988+29758.914949493188i
0.02393939393939394       -0.006                   17934.278070676155+28659.896235221928i
0.024242424242424242      -0.006                   17398.509271277402+27635.987200062442i
0.024545454545454544      -0.006                   16845.743896563232+26680.354079426015i
0.02484848484848485       -0.006                   16275.877164162817+25792.685421700633i
0.02515151515151515       -0.006                   15689.15763381158+24971.94890973803i
0.025454545454545455      -0.006                   15085.49806034584+24210.70953052632i
0.025757575757575757      -0.006                   14464.620802308924+23507.521263543178i
0.026060606060606062      -0.006                   13826.524797813348+22862.260348344647i
0.026363636363636363      -0.006                   13169.947995166054+22268.52248982473i
0.026666666666666665      -0.006                   12494.055397896598+21722.780720576346i
0.02696969696969697       -0.006                   11798.847006004988+21225.035040599512i
0.02727272727272727       -0.006                   11082.632488985364+20771.33041677963i
0.027575757575757576      -0.006                   10343.523294153252+20355.24260296879i
0.027878787878787878      -0.006                   9581.528758709883+19976.687898283544i
0.028181818181818183      -0.006                   8795.356330978137+19633.822383576542i
0.028484848484848484      -0.006                   7981.784618432903+19318.4465979894i
0.02878787878787879       -0.006                   7140.762261421213+19029.58629581018i
0.02909090909090909       -0.006                   6271.403163080776+18766.618244234443i
0.029393939393939392      -0.006                   5369.965912643286+18521.05348622899i
0.029696969696969697      -0.006                   4437.139635761912+18290.222703999694i
0.03                      -0.006                   3472.9243324367185+18074.125897546583i
0                         -0.00593939393939394     -6.57475378782363-12.837261158588204i
3.0303030303030303E-4     -0.00593939393939394     -6209.413568733593+12561.494748348898i
6.060606060606061E-4      -0.00593939393939394     -12349.605371965376+25022.76640272221i
9.090909090909091E-4      -0.00593939393939394     -18405.28856351948+37366.57877227129i
0.0012121212121212121     -0.00593939393939394     -24240.385237073602+49537.80167555059i
0.0015151515151515152     -0.00593939393939394     -29894.330179705237+61419.571646054625i
0.0018181818181818182     -0.00593939393939394     -35289.54161969682+72990.51922971499i
0.002121212121212121      -0.00593939393939394     -40318.62037224842+84215.30205815504i
0.0024242424242424242     -0.00593939393939394     -45029.49962132288+94990.36467742264i
0.0027272727272727275     -0.00593939393939394     -49350.38977090933+105287.60134790449i
0.0030303030303030303     -0.00593939393939394     -53224.46377998729+115094.83202860448i
0.003333333333333333      -0.00593939393939394     -56644.60250963113+124324.05264854275i
0.0036363636363636364     -0.00593939393939394     -59600.695478560505+132956.7289271088i
0.00393939393939394       -0.00593939393939394     -62087.367060950215+140992.13284330058i
0.004242424242424242      -0.00593939393939394     -64004.309342799854+148365.96060181185i
0.004545454545454545      -0.00593939393939394     -65456.45178459001+155077.80433210693i
0.0048484848484848485     -0.00593939393939394     -66423.0272535571+161130.23651351957i
0.005151515151515152      -0.00593939393939394     -66857.68033197605+166494.41311280662i
0.005454545454545455      -0.00593939393939394     -66824.39904761293+171172.61792677853i
0.005757575757575757      -0.00593939393939394     -66350.57074474657+175188.13858887166i
0.006060606060606061      -0.00593939393939394     -65428.393136044426+178533.2787958319i
0.006363636363636364      -0.00593939393939394     -64072.165389298534+181205.79406029402i
0.006666666666666666      -0.00593939393939394     -62364.96770474304+183260.82401190343i
0.0069696969696969695     -0.00593939393939394     -60308.718192600296+184698.7294018733i
0.007272727272727273      -0.00593939393939394     -57923.42104715705+185522.99656317776i
0.007575757575757576      -0.00593939393939394     -55280.873784104035+185804.78966050432i
0.00787878787878788       -0.00593939393939394     -52401.95464439139+185552.30876692722i
0.008181818181818182      -0.00593939393939394     -49320.570789601545+184774.78808848595i
0.008484848484848484      -0.00593939393939394     -46075.267656887445+183542.80981123107i
0.008787878787878787      -0.00593939393939394     -42711.26141906279+181880.95346670697i
0.00909090909090909       -0.00593939393939394     -39262.00648209139+179797.10691251495i
0.009393939393939394      -0.00593939393939394     -35738.65840732485+177353.21738261197i
0.009696969696969697      -0.00593939393939394     -32199.959938230593+174590.72742746933i
0.01                      -0.00593939393939394     -28661.496255922084+171512.78269571162i
0.010303030303030303      -0.00593939393939394     -25154.250317625043+168169.16880131097i
0.010606060606060607      -0.00593939393939394     -21696.325204596757+164610.9191247168i
0.01090909090909091       -0.00593939393939394     -18302.417729920504+160840.74126368848i
0.011212121212121211      -0.00593939393939394     -15023.959466779821+156892.8254593239i
0.011515151515151515      -0.00593939393939394     -11835.897278812887+152820.55443305738i
0.011818181818181818      -0.00593939393939394     -8764.302648929406+148630.50573942892i
0.012121212121212121      -0.00593939393939394     -5843.174160181744+144338.25590253997i
0.012424242424242424      -0.00593939393939394     -3046.521113473134+139996.06966627194i
0.012727272727272728      -0.00593939393939394     -394.3693619390904+135613.62599133683i
0.013030303030303031      -0.00593939393939394     2092.442911163286+131195.61290906454i
0.013333333333333332      -0.00593939393939394     4432.695622799615+126785.1273962217i
0.013636363636363636      -0.00593939393939394     6622.6406794279+122393.94834946183i
0.013939393939393939      -0.00593939393939394     8659.908874707991+118022.21240084579i
0.014242424242424242      -0.00593939393939394     10517.547541583746+113699.31880866103i
0.014545454545454545      -0.00593939393939394     12243.9277506255+109439.41740272977i
0.014848484848484849      -0.00593939393939394     13823.395178365823+105241.97958360714i
0.015151515151515152      -0.00593939393939394     15237.324618991974+101120.11750615881i
0.015454545454545455      -0.00593939393939394     16527.622819027194+97092.44540297627i
0.01575757575757576       -0.00593939393939394     17685.507507973536+93155.69057947728i
0.01606060606060606       -0.00593939393939394     18696.87452124911+89314.09215905152i
0.016363636363636365      -0.00593939393939394     19596.194707454157+85585.69544970694i
0.016666666666666666      -0.00593939393939394     20381.962454967546+81964.86226065832i
0.016969696969696968      -0.00593939393939394     21052.82300475015+78451.75966670693i
0.017272727272727273      -0.00593939393939394     21606.04695376229+75061.27232930988i
0.017575757575757574      -0.00593939393939394     22074.98382278014+71786.59750235877i
0.01787878787878788       -0.00593939393939394     22450.455803046378+68626.98235753203i
0.01818181818181818       -0.00593939393939394     22725.1327464982+65589.74540913985i
0.018484848484848486      -0.00593939393939394     22932.426053422732+62672.19597104649i
0.018787878787878787      -0.00593939393939394     23065.432977368553+59870.56159450569i
0.019090909090909092      -0.00593939393939394     23116.717416059935+57187.92175604629i
0.019393939393939394      -0.00593939393939394     23113.967936190253+54624.13487020072i
0.019696969696969695      -0.00593939393939394     23053.918346087117+52172.47395171873i
0.02                      -0.00593939393939394     22933.198595207672+49833.54720288563i
0.020303030303030302      -0.00593939393939394     22762.40060139182+47610.1150097699i
0.020606060606060607      -0.00593939393939394     22551.84169901598+45492.11332065289i
0.02090909090909091       -0.00593939393939394     22298.100676119437+43479.51553749967i
0.021212121212121213      -0.00593939393939394     21998.701191519267+41575.00640536605i
0.021515151515151515      -0.00593939393939394     21672.688476765466+39768.87548882608i
0.02181818181818182       -0.00593939393939394     21314.49197714402+38059.62446243493i
0.02212121212121212       -0.00593939393939394     20920.257711224775+36449.158976788385i
0.022424242424242423      -0.00593939393939394     20505.964549769724+34929.99731672153i
0.022727272727272728      -0.00593939393939394     20067.3823602551+33498.3706176588i
0.02303030303030303       -0.00593939393939394     19600.931718008946+32155.364401740186i
0.023333333333333334      -0.00593939393939394     19117.453599357374+30896.713469074708i
0.023636363636363636      -0.00593939393939394     18615.134013728075+29715.77137825659i
0.02393939393939394       -0.00593939393939394     18093.464274758742+28612.626099937137i
0.024242424242424242      -0.00593939393939394     17550.368392245924+27587.454105194483i
0.024545454545454544      -0.00593939393939394     16993.970006825715+26630.067648654003i
0.02484848484848485       -0.00593939393939394     16420.470263719228+25740.64565502457i
0.02515151515151515       -0.00593939393939394     15827.062516070602+24920.188613760925i
0.025454545454545455      -0.00593939393939394     15219.847672406102+24159.180247301574i
0.025757575757575757      -0.00593939393939394     14595.415144170416+23456.22299307077i
0.026060606060606062      -0.00593939393939394     13951.036950586209+22812.63951142987i
0.026363636363636363      -0.00593939393939394     13290.622138859735+22220.728629754623i
0.026666666666666665      -0.00593939393939394     12610.891532511088+21676.813837350914i
0.02696969696969697       -0.00593939393939394     11911.53994294598+21181.074701314956i
0.02727272727272727       -0.00593939393939394     11188.530358345392+20731.413295757473i
0.027575757575757576      -0.00593939393939394     10444.581366620148+20318.419127200796i
0.027878787878787878      -0.00593939393939394     9677.747034283606+19942.958067769698i
0.028181818181818183      -0.00593939393939394     8883.29701446127+19605.104142748245i
0.028484848484848484      -0.00593939393939394     8062.617016014529+19293.719735291575i
0.02878787878787879       -0.00593939393939394     7214.486373101327+19008.85081124284i
0.02909090909090909       -0.00593939393939394     6334.346013878853+18751.34015767363i
0.029393939393939392      -0.00593939393939394     5420.626423847526+18510.383656529844i
0.029696969696969697      -0.00593939393939394     4475.517807372384+18284.16113116225i
0.03                      -0.00593939393939394     3488.9151331854605+18074.3535181568i
0                         -0.005878787878787879    24.61122669080495-16.480257166556584i
3.0303030303030303E-4     -0.005878787878787879    -6327.914849157341+12747.426067644923i
6.060606060606061E-4      -0.005878787878787879    -12623.190540519328+25400.91778523818i
9.090909090909091E-4      -0.005878787878787879    -18833.957620203615+37936.950218007216i
0.0012121212121212121     -0.005878787878787879    -24765.71546158698+50282.136806755756i
0.0015151515151515152     -0.005878787878787879    -30564.051177367048+62342.520449488635i
0.0018181818181818182     -0.005878787878787879    -36103.653390507025+74092.08170537777i
0.002121212121212121      -0.005878787878787879    -41211.97576042372+85474.69713453451i
0.0024242424242424242     -0.005878787878787879    -46032.88517333911+96400.3146103512i
0.0027272727272727275     -0.005878787878787879    -50463.80548676649+106848.10613738213i
0.0030303030303030303     -0.005878787878787879    -54427.76635642399+116797.51184589881i
0.003333333333333333      -0.005878787878787879    -57897.363132054365+126138.7668680009i
0.0036363636363636364     -0.005878787878787879    -60922.3230426128+134885.21103159702i
0.00393939393939394       -0.005878787878787879    -63471.40809751795+143033.17020011682i
0.004242424242424242      -0.005878787878787879    -65405.224158501034+150483.96747921276i
0.004545454545454545      -0.005878787878787879    -66881.20869506813+157267.81526331068i
0.0048484848484848485     -0.005878787878787879    -67871.62625881225+163392.2514985263i
0.005151515151515152      -0.005878787878787879    -68300.02416249152+168805.42572254044i
0.005454545454545455      -0.005878787878787879    -68248.57093916084+173513.48183133354i
0.005757575757575757      -0.005878787878787879    -67756.57069732698+177558.85378824783i
0.006060606060606061      -0.005878787878787879    -66811.2974364988+180926.60108433376i
0.006363636363636364      -0.005878787878787879    -65404.73226965748+183591.4243593339i
0.006666666666666666      -0.005878787878787879    -63646.10456739551+185638.16070877106i
0.0069696969696969695     -0.005878787878787879    -61543.55419176121+187067.74825038514i
0.007272727272727273      -0.005878787878787879    -59094.96495424718+187859.61940778562i
0.007575757575757576      -0.005878787878787879    -56379.639008419326+188102.16141713966i
0.00787878787878788       -0.005878787878787879    -53427.94118593181+187810.42943559014i
0.008181818181818182      -0.005878787878787879    -50286.42910339506+186985.53300648203i
0.008484848484848484      -0.005878787878787879    -46959.43638948251+185692.2776631372i
0.008787878787878787      -0.005878787878787879    -43513.7405704595+183969.14425252337i
0.00909090909090909       -0.005878787878787879    -40003.3566606956+181825.53296579685i
0.009393939393939394      -0.005878787878787879    -36399.65545762716+179307.04199196986i
0.009696969696969697      -0.005878787878787879    -32780.60386023097+176469.95059290325i
0.01                      -0.005878787878787879    -29172.704080116226+173319.8800401717i
0.010303030303030303      -0.005878787878787879    -25602.67266002407+169898.9007661989i
0.010606060606060607      -0.005878787878787879    -22072.875752856+166260.47895921214i
0.01090909090909091       -0.005878787878787879    -18607.096484040012+162410.12896779124i
0.011212121212121211      -0.005878787878787879    -15283.769770237592+158387.00504186001i
0.011515151515151515      -0.005878787878787879    -12036.132899775845+154235.03486802132i
0.011818181818181818      -0.005878787878787879    -8904.963587397573+149965.28702682062i
0.012121212121212121      -0.005878787878787879    -5945.79210365634+145599.0327284339i
0.012424242424242424      -0.005878787878787879    -3103.0205320452083+141181.9418771375i
0.012727272727272728      -0.005878787878787879    -404.75025560870625+136724.59358717405i
0.013030303030303031      -0.005878787878787879    2120.7673482928635+132234.97033336989i
0.013333333333333332      -0.005878787878787879    4486.795563915819+127757.321367773i
0.013636363636363636      -0.005878787878787879    6710.097814787883+123298.6516087149i
0.013939393939393939      -0.005878787878787879    8776.970631163118+118860.0928975649i
0.014242424242424242      -0.005878787878787879    10651.410101100051+114478.12732226863i
0.014545454545454545      -0.005878787878787879    12400.117964425093+110159.47513481117i
0.014848484848484849      -0.005878787878787879    14001.913046448712+105903.28653416225i
0.015151515151515152      -0.005878787878787879    15424.184757201736+101728.65415886225i
0.015454545454545455      -0.005878787878787879    16727.925499842884+97651.28780946387i
0.01575757575757576       -0.005878787878787879    17899.25273139518+93664.83873974899i
0.01606060606060606       -0.005878787878787879    18917.194606840745+89776.33990396385i
0.016363636363636365      -0.005878787878787879    19820.829481305827+86006.90239428634i
0.016666666666666666      -0.005878787878787879    20613.323333127304+82345.09508299925i
0.016969696969696968      -0.005878787878787879    21286.519706775216+78792.02290656189i
0.017272727272727273      -0.005878787878787879    21839.934607750318+75367.39955138326i
0.017575757575757574      -0.005878787878787879    22310.815891041813+72059.73502464469i
0.01787878787878788       -0.005878787878787879    22688.232285581704+68867.13018003054i
0.01818181818181818       -0.005878787878787879    22957.40047066228+65801.59212567446i
0.018484848484848486      -0.005878787878787879    23163.483859930482+62858.10095405942i
0.018787878787878787      -0.005878787878787879    23295.28086621997+60030.524843997046i
0.019090909090909092      -0.005878787878787879    23340.087580466123+57324.10900920928i
0.019393939393939394      -0.005878787878787879    23334.238239228416+54740.444501577265i
0.019696969696969695      -0.005878787878787879    23271.088787757246+52268.9059613088i
0.02                      -0.005878787878787879    23145.27104397637+49910.90633439257i
0.020303030303030302      -0.005878787878787879    22968.42820665048+47672.20919839458i
0.020606060606060607      -0.005878787878787879    22753.826912949506+45539.438844467695i
0.02090909090909091       -0.005878787878787879    22496.043498727813+43512.072396504474i
0.021212121212121213      -0.005878787878787879    22188.971582438207+41596.07365333129i
0.021515151515151515      -0.005878787878787879    21858.620721395415+39779.4260021757i
0.02181818181818182       -0.005878787878787879    21496.086075484942+38059.65824116886i
0.02212121212121212       -0.005878787878787879    21094.61725036554+36440.41807375962i
0.022424242424242423      -0.005878787878787879    20676.095083159427+34914.242298664605i
0.022727272727272728      -0.005878787878787879    20233.28388789375+33475.60148457373i
0.02303030303030303       -0.005878787878787879    19761.79582746118+32126.13603589297i
0.023333333333333334      -0.005878787878787879    19272.68628957856+30863.47451135391i
0.023636363636363636      -0.005878787878787879    18766.43425878365+29678.4058564876i
0.02393939393939394       -0.005878787878787879    18240.14392773399+28571.377781563584i
0.024242424242424242      -0.005878787878787879    17691.839819427292+27544.174181257702i
0.024545454545454544      -0.005878787878787879    17131.808423301034+26585.03438881319i
0.02484848484848485       -0.005878787878787879    16554.67566948848+25693.85905927968i
0.02515151515151515       -0.005878787878787879    15955.789476834976+24873.10481538645i
0.025454545454545455      -0.005878787878787879    15345.019362971701+24112.327461679433i
0.025757575757575757      -0.005878787878787879    14717.031564537265+23409.601220200984i
0.026060606060606062      -0.005878787878787879    14067.925265110021+22766.877476757916i
0.026363636363636363      -0.005878787878787879    13403.153487538963+22176.990563413718i
0.026666666666666665      -0.005878787878787879    12719.584872111152+21634.902747854696i
0.02696969696969697       -0.005878787878787879    12015.451802825013+21141.535953554907i
0.02727272727272727       -0.005878787878787879    11287.191663098982+20694.877064136068i
0.027575757575757576      -0.005878787878787879    10538.402874480575+20284.976540833544i
0.027878787878787878      -0.005878787878787879    9766.72874525092+19912.60912665662i
0.028181818181818183      -0.005878787878787879    8964.843902748373+19579.032583341297i
0.028484848484848484      -0.005878787878787879    8137.0556184001225+19271.63955401511i
0.02878787878787879       -0.005878787878787879    7281.816689585396+18990.762008096834i
0.02909090909090909       -0.005878787878787879    6391.7695595578225+18737.997835751372i
0.029393939393939392      -0.005878787878787879    5465.767629932696+18501.64959146928i
0.029696969696969697      -0.005878787878787879    4508.376673863721+18280.03532296335i
0.03                      -0.005878787878787879    3500.899318336184+18075.78362691369i
0                         -0.005818181818181819    51.215988251420704-19.780661103793808i
3.0303030303030303E-4     -0.005818181818181819    -6467.462321234991+12935.453160785783i
6.060606060606061E-4      -0.005818181818181819    -12917.821900727167+25781.164941598985i
9.090909090909091E-4      -0.005818181818181819    -19280.509615409203+38509.18215878684i
0.0012121212121212121     -0.005818181818181819    -25337.99133648852+51031.03035431841i
0.0015151515151515152     -0.005818181818181819    -31280.717825417003+63270.0276692801i
0.0018181818181818182     -0.005818181818181819    -36964.71081170539+75198.20259739806i
0.002121212121212121      -0.005818181818181819    -42178.27856458933+86741.5003714693i
0.0024242424242424242     -0.005818181818181819    -47109.21814134569+97817.67270383514i
0.0027272727272727275     -0.005818181818181819    -51650.168618613985+108416.01908741514i
0.0030303030303030303     -0.005818181818181819    -55711.57818364422+118506.35989579532i
0.003333333333333333      -0.005818181818181819    -59242.66697690459+127962.76863511608i
0.0036363636363636364     -0.005818181818181819    -62336.49382909203+136822.98068374218i
0.00393939393939394       -0.005818181818181819    -64941.73818951387+145080.41989273764i
0.004242424242424242      -0.005818181818181819    -66911.63908461008+152612.4936127787i
0.004545454545454545      -0.005818181818181819    -68411.4657159542+159468.3454506796i
0.0048484848484848485     -0.005818181818181819    -69425.72537447517+165664.78573969804i
0.005151515151515152      -0.005818181818181819    -69853.88938178356+171127.39666338326i
0.005454545454545455      -0.005818181818181819    -69784.26421948538+175865.30406699757i
0.005757575757575757      -0.005818181818181819    -69274.09203868397+179940.52731873302i
0.006060606060606061      -0.005818181818181819    -68302.80715176107+183328.20028346224i
0.006363636363636364      -0.005818181818181819    -66848.43299526806+185987.7443996926i
0.006666666666666666      -0.005818181818181819    -65038.37527529955+188026.1871469574i
0.0069696969696969695     -0.005818181818181819    -62885.695883733715+189445.1605165857i
0.007272727272727273      -0.005818181818181819    -60372.18792920222+190206.24999198414i
0.007575757575757576      -0.005818181818181819    -57584.083300599494+190409.54091336584i
0.00787878787878788       -0.005818181818181819    -54559.60679533714+190078.55784384394i
0.008181818181818182      -0.005818181818181819    -51349.391163400134+189205.4626977381i
0.008484848484848484      -0.005818181818181819    -47940.70886828918+187850.93028830353i
0.008787878787878787      -0.005818181818181819    -44413.32346806773+186066.51981159975i
0.00909090909090909       -0.005818181818181819    -40825.62783745944+183861.17081076463i