% Model:              FEA.mph
% Version:            COMSOL 5.1.0.145
% Date:               Jun 23 2022, 13:21
% Dimension:          3
% Nodes:              100
% Expressions:        3
% Description:        Magnetic flux density, x component, Magnetic flux density, y component, Magnetic flux density, z component
% Length unit:        m
% x                       y                        z                        mf.Bx (T) @ freq=2E6                              mf.By (T) @ freq=2E6                              mf.Bz (T) @ freq=2E6
-0.018000000000000002     0                        0.0015                   1.2614978829417678E-5+1.7594827965702026E-9i      -5.53106238125752E-7+1.5983983865464765E-11i      -1.1048114588509535E-4+2.549328062729702E-9i
-0.017636363636363638     0                        0.0015                   1.447460027930456E-5+1.9570547763588537E-9i       -3.3170499575459894E-7+1.6477479624043384E-11i    -1.1629852394519873E-4+2.5559477091054434E-9i
-0.017272727272727276     0                        0.0015                   1.6334221729191387E-5+2.154626756147743E-9i       -1.1030375338312061E-7+1.697097538283376E-11i     -1.2211590200530238E-4+2.5625673554811318E-9i
-0.016909090909090912     0                        0.0015                   1.8739174782540584E-5+2.390308089250951E-9i       4.372641926808033E-8-5.003680783927894E-13i       -1.3014960054018667E-4+2.5241048071096474E-9i
-0.016545454545454547     0                        0.0015                   2.2973943705111586E-5+2.6064055693476914E-9i      3.7490231316389053E-7-1.75035865034708E-11i       -1.361124659586937E-4+2.4140846950084777E-9i
-0.016181818181818183     0                        0.0015                   2.7208712627682804E-5+2.8225030494442995E-9i      7.060782070594839E-7-3.4506804928416465E-11i      -1.4207533137720034E-4+2.3040645829075197E-9i
-0.01581818181818182      0                        0.0015                   3.2656394121766954E-5+3.0000472414557666E-9i      1.023563218942574E-6-4.2191749710184426E-12i      -1.5144466566712768E-4+2.2881815991779466E-9i
-0.015454545454545457     0                        0.0015                   3.661656442075229E-5+3.1833814017173215E-9i       1.1249127871337718E-6+1.3182595199530264E-12i     -1.602218719724247E-4+2.2296821634169535E-9i
-0.015090909090909092     0                        0.0015                   4.201949009871803E-5+3.374182137560294E-9i        -1.5444204159872042E-6-3.892454268146939E-12i     -1.7157683423139506E-4+2.10409673811339E-9i
-0.01472727272727273      0                        0.0015                   4.647240252709069E-5+3.5424432674916334E-9i       -1.983613430698054E-6-1.816241675071781E-11i      -1.8447987395480803E-4+2.0454047235816E-9i
-0.014363636363636365     0                        0.0015                   5.49492679015191E-5+3.7008205180960104E-9i        -7.771056306164325E-7+1.0771715706460058E-11i     -1.911878501080237E-4+1.916069974150015E-9i
-0.014000000000000002     0                        0.0015                   6.153295336769728E-5+3.866472848766911E-9i        4.780042573159535E-7+1.8223208813092182E-11i      -2.0986975230163863E-4+1.8425997450604241E-9i
-0.013636363636363637     0                        0.0015                   7.464203174193621E-5+4.031174632077188E-9i        5.635814675598984E-6+1.9083197773625273E-11i      -2.2055048855363951E-4+1.758544109098687E-9i
-0.013272727272727275     0                        0.0015                   8.616614718238004E-5+4.186440246276593E-9i        2.553692261530842E-6-4.975605778676688E-12i       -2.4277522658580587E-4+1.6395368198089819E-9i
-0.012909090909090912     0                        0.0015                   9.955456951854687E-5+4.367831519990905E-9i        1.6732062701458163E-6-2.3890609384604544E-11i     -2.6294336682109376E-4+1.523853714309188E-9i
-0.012545454545454547     0                        0.0015                   1.187642497441772E-4+4.53412778153679E-9i         6.430071432463492E-7-9.437306128882964E-12i       -2.770547979806697E-4+1.360478754676386E-9i
-0.012181818181818183     0                        0.0015                   1.379739299698082E-4+4.7004240430827065E-9i       -3.8719198365344326E-7+5.015997126861778E-12i     -2.9116622914024544E-4+1.19710379504369E-9i
-0.01181818181818182      0                        0.0015                   1.5718361019543897E-4+4.86672030462856E-9i        -1.4173911105529917E-6+1.9469300382608174E-11i    -3.0527766029982075E-4+1.033728835410888E-9i
-0.011454545454545457     0                        0.0015                   1.8089485492339837E-4+4.9937395675749845E-9i      2.7453584697527574E-7+1.5292432953351313E-11i     -3.3361747906506325E-4+8.279166420398027E-10i
-0.011090909090909092     0                        0.0015                   2.045605909488362E-4+5.15673698125971E-9i         -3.4261907655018693E-6+4.887354724264756E-11i     -3.814602932981615E-4+7.259908883361989E-10i
-0.010727272727272728     0                        0.0015                   2.5302323825067375E-4+5.22946505612294E-9i        -2.1224281961690784E-6+2.6327154233871618E-11i    -4.0397902363757806E-4+4.708414965489881E-10i
-0.010363636363636365     0                        0.0015                   3.014858855525128E-4+5.302193130986143E-9i        -8.186656268348779E-7+3.780761225062589E-12i      -4.2649775397699506E-4+2.1569210476185664E-10i
-0.010000000000000002     0                        0.0015                   3.49948532854352E-4+5.374921205849386E-9i         4.850969424985364E-7-1.8765631783662067E-11i      -4.4901648431641336E-4-3.945728702530126E-11i
-0.009636363636363637     0                        0.0015                   3.984111801561905E-4+5.4476492807125594E-9i       1.7888595118319508E-6-4.1312024792429737E-11i     -4.715352146558299E-4-2.946066788124062E-10i
-0.009272727272727274     0                        0.0015                   5.061207938473835E-4+5.283715653832451E-9i        3.447502040658393E-5-1.7572409836373165E-10i      -5.239160666241464E-4-6.376114413671112E-10i
-0.00890909090909091      0                        0.0015                   6.019274703979545E-4+5.1102260562825964E-9i       -7.4363180380676575E-6+2.8542432125707614E-11i    -5.513728803271875E-4-1.0055676046377737E-9i
-0.008545454545454547     0                        0.0015                   7.374846343121671E-4+4.74875402003526E-9i         -4.01453056981518E-6+2.8402434116689202E-11i      -6.595421496917442E-4-1.068087402736219E-9i
-0.008181818181818182     0                        0.0015                   8.730417982263771E-4+4.3872819837879106E-9i       -5.927431015637866E-7+2.82624361076741E-11i       -7.677114190563009E-4-1.1306072008344656E-9i
-0.00781818181818182      0                        0.0015                   0.0011020664037554213+3.5415521386610693E-9i      8.612317656731829E-6-8.085248140777255E-11i       -7.439090058277325E-4-1.846707372454415E-9i
-0.007454545454545455     0                        0.0015                   0.0013285560201383424+2.8627332571546515E-9i      -5.453981048421852E-7+1.168827299225218E-11i      -6.832431270651707E-4-2.8900266742684245E-9i
-0.007090909090909092     0                        0.0015                   0.0016377325638663883+1.7497882255705427E-9i      1.2171068213771494E-5-2.7714311137753917E-11i     -7.774033109358112E-4-3.109802083778443E-9i
-0.006727272727272728     0                        0.0015                   0.002032687437270358+2.254824085436494E-10i       -1.7249632314407862E-5+1.0236979676600036E-10i    -8.176688929950691E-4-3.7006995600243377E-9i
-0.006363636363636365     0                        0.0015                   0.002555535560634663-1.9600946838814207E-9i       -1.6752143744157722E-5+1.994677169339679E-10i     -6.744944288775501E-4-5.14062018450913E-9i
-0.006000000000000002     0                        0.0015                   0.0030790849627738157-3.80702613732965E-9i        5.0949711666529096E-5-1.9641476804311328E-10i     5.9910020264938586E-5-8.67780921786793E-9i
-0.005636363636363637     0                        0.0015                   0.003312320238413912-4.7363356821888986E-9i       5.2197389118083514E-5-2.0117828357119545E-10i     3.2606472095101735E-4-1.105676911860325E-8i
-0.005272727272727274     0                        0.0015                   0.00443409198637392-9.539306499284936E-9i         -2.0808131473875794E-5+1.0364363400471109E-10i    8.667481949781563E-4-1.3881819904338176E-8i
-0.00490909090909091      0                        0.0015                   0.004549393996018411-1.0301302694133539E-8i       5.466984698564189E-6-1.1408948180917069E-11i      0.0020328998501828845-1.938113451061809E-8i
-0.004545454545454547     0                        0.0015                   0.0045896417805410435-1.0732879773748509E-8i      -8.105217930318178E-6+3.471447951405153E-11i      0.0029924997583771857-2.4178381551180497E-8i
-0.004181818181818182     0                        0.0015                   0.00432731978204767-9.970808299456609E-9i         -1.4481579548394354E-5+5.746363733359985E-11i     0.004271628586581348-3.0244555427553046E-8i
-0.0038181818181818195    0                        0.0015                   0.003760324344044028-8.009760837498036E-9i        -2.9473741086471616E-6+3.4711464206246158E-12i    0.0051227222520019225-3.450465947033618E-8i
-0.003454545454545455     0                        0.0015                   0.0031794682239104834-6.2634988718395656E-9i      -1.1250010723793573E-5+2.2137571623465842E-11i    0.005151067384998412-3.5308766038414916E-8i
-0.003090909090909092     0                        0.0015                   0.002598612103776949-4.5172369061810685E-9i       -1.95526473389376E-5+4.08039968262442E-11i        0.005179412517994892-3.611287260649339E-8i
-0.0027272727272727275    0                        0.0015                   0.002117716341916962-3.1384776037322966E-9i       -1.522652459718249E-4+1.0925476004019337E-9i      0.005242525190622261-3.700156956512784E-8i
-0.002363636363636363     0                        0.0015                   0.0016641388356283537-1.7164606478244909E-9i      1.0840168037293957E-5-9.179445948662665E-11i      0.005320742119734592-3.792015785636624E-8i
-0.0020000000000000018    0                        0.0015                   0.0013690914493528971-1.306146680935883E-9i       2.0258075403000245E-5-4.298565990053337E-11i      0.005351148286939339-3.8630946592824734E-8i
-0.0016363636363636372    0                        0.0015                   0.0010740440630774334-8.958327140472447E-10i      2.9675982768706533E-5+5.823139685579772E-12i      0.005381554454144075-3.93417353292831E-8i
-0.0012727272727272726    0                        0.0015                   7.742100622204026E-4-3.4149262942034384E-10i      1.20014205473517E-5+3.97574188439464E-12i         0.005347962421924197-3.967817079608361E-8i
-9.09090909090908E-4      0                        0.0015                   5.454252323164154E-4-1.5359428221709646E-10i      6.484939629270239E-6+5.297993862747089E-11i       0.005311419555682147-3.9727609003866846E-8i
-5.454545454545469E-4     0                        0.0015                   3.303282957863906E-4+5.138070597435178E-11i       2.841462392850092E-6+9.13491276140105E-11i        0.005305592671532542-3.9728711422171897E-8i
-1.818181818181823E-4     0                        0.0015                   1.0597383027946723E-4-3.0770172530091984E-12i     -5.010976834703411E-6+5.626720225877361E-12i      0.005291584491142013-3.983459019403416E-8i
1.818181818181823E-4      0                        0.0015                   -1.1887640790060258E-4+1.3224039902287933E-12i    -1.3348884119266345E-5-2.8072553823564082E-11i    0.005280263642793507-3.991850263785641E-8i
5.454545454545434E-4      0                        0.0015                   -3.327459983971464E-4+3.925190355140652E-11i      -1.0153464229999652E-5-4.75558329098626E-11i      0.005292306222064266-3.988111290894372E-8i
9.09090909090908E-4       0                        0.0015                   -5.466155888936937E-4+7.718140311256936E-11i      -6.958044340733827E-6-6.703911199614385E-11i      0.005304348801335022-3.984372318003101E-8i
0.0012727272727272726     0                        0.0015                   -7.661978729661846E-4+2.481910814336161E-10i      -2.2235969308605393E-5-1.2461176265778965E-10i    0.005339030885995071-3.9801402752889374E-8i
0.0016363636363636372     0                        0.0015                   -0.0010752341001707111+7.534670028852318E-10i     -4.9383851651293824E-5+5.732359267327324E-11i     0.0053889911071836665-3.948188761481007E-8i
0.0019999999999999983     0                        0.0015                   -0.0013620443010155365+1.181082730756897E-9i      -2.3174442122632713E-5+1.1881718409921022E-11i    0.005369297086486816-3.881005593675266E-8i
0.002363636363636363      0                        0.0015                   -0.0016488545018603607+1.6086984586285538E-9i     3.03496740603821E-6-3.356015585347462E-11i        0.005349603065789959-3.8138224258695217E-8i
0.0027272727272727275     0                        0.0015                   -0.002057507496046109+2.7573703126731416E-9i      -1.870416422489543E-6+7.209773946170524E-11i      0.004996223399843641-3.5390704627544834E-8i
0.003090909090909092      0                        0.0015                   -0.0024055219098659585+3.635937401577278E-9i      6.060913304535955E-6+1.0331707132639072E-11i      0.0050650686611886184-3.571710705103283E-8i
0.003454545454545453      0                        0.0015                   -0.003115071262032317+5.969703434576488E-9i       4.249535454901256E-6+4.0207439346902835E-12i      0.005054707238850903-3.489778119675907E-8i
0.003818181818181818      0                        0.0015                   -0.003809646072819556+8.25107514896654E-9i        1.2777947377323783E-6+2.1039593077198107E-12i     0.005068468545432303-3.416744480390625E-8i
0.004181818181818182      0                        0.0015                   -0.004332335632354518+9.965525119393721E-9i       7.569926004352375E-6-3.149756717528316E-11i       0.004379217173743084-3.066094616265445E-8i
0.004545454545454547      0                        0.0015                   -0.004560737564737679+1.057564060496007E-8i       7.116781138506842E-6-3.1906459635047986E-11i      0.0030746110777806167-2.4444747337787634E-8i
0.004909090909090908      0                        0.0015                   -0.004513939514415519+1.0124381312038362E-8i      -9.709162686350717E-6+3.669739383674528E-11i      0.0021701492688220823-1.9833292120761782E-8i
0.005272727272727273      0                        0.0015                   -0.004326311827725161+9.109493146857888E-9i       -2.7027165947258102E-5+9.206318694823677E-11i     8.445428185599214E-4-1.3767169544045099E-8i
0.005636363636363637      0                        0.0015                   -0.003913623705881282+7.2124226757742615E-9i      -2.648648620407016E-5+1.23750394573028E-10i       -1.2701184513852493E-7-9.675890631296704E-9i
0.005999999999999998      0                        0.0015                   -0.0030401317595839146+3.5324878150582223E-9i     2.0707331020955455E-5-7.757178913780657E-11i      -2.1771541232560622E-4-8.016003165154055E-9i
0.006363636363636363      0                        0.0015                   -0.002663390849552656+2.019723107863679E-9i       -1.8888527419298393E-5+7.103840330712444E-11i     -4.140621960573021E-4-6.203254893097048E-9i
0.006727272727272728      0                        0.0015                   -0.002286649939521392+5.069584006689302E-10i      -5.84843858595517E-5+2.1964859575201244E-10i      -6.104089797889936E-4-4.390506621040147E-9i
0.007090909090909092      0                        0.0015                   -0.0016689502742843298-1.633167001888201E-9i      1.6699828817877838E-5-1.631469654038476E-10i      -7.963589042885774E-4-2.9215209066297152E-9i
0.007454545454545453      0                        0.0015                   -0.0012975778948570503-3.0348120877366814E-9i     -8.77494763896862E-6+8.440678331011899E-11i       -6.433021022063585E-4-3.1068743037761E-9i
0.007818181818181818      0                        0.0015                   -0.0011114451578168034-3.5455542567164023E-9i     -1.2159865072063764E-6-1.254464355761906E-11i     -6.731602773084618E-4-2.24608495462596E-9i
0.008181818181818182      0                        0.0015                   -8.922733629199179E-4-4.323346984272262E-9i       -3.5065412901703636E-6+2.788844104604813E-11i     -7.000845737429771E-4-1.4916442912959343E-9i
0.008545454545454547      0                        0.0015                   -7.171345902468888E-4-4.833160496933652E-9i       4.627103072978749E-6-2.207083398981871E-12i       -6.94301142700966E-4-8.535978864129932E-10i
0.008909090909090908      0                        0.0015                   -6.053080144153974E-4-5.0573686267672985E-9i      1.0621173841115703E-6-1.5121261838172414E-11i     -5.991855203725505E-4-7.714191939218855E-10i
0.009272727272727273      0                        0.0015                   -5.087712531308261E-4-5.278816422009944E-9i       -3.1290497788973026E-6-6.877061131729504E-12i     -5.075736063489523E-4-7.273751603236245E-10i
0.009636363636363637      0                        0.0015                   -4.01734078248145E-4-5.4549720411311184E-9i       -5.936583442508179E-6+2.4015302974370088E-11i     -5.105380523504786E-4-1.6844557498682757E-10i
0.010000000000000002      0                        0.0015                   -3.4375668952048863E-4-5.4834699495123905E-9i     -3.0369430724990973E-6+2.982635308225463E-12i     -4.5054992559016155E-4-5.314236764911144E-11i
0.010363636363636363      0                        0.0015                   -3.021719672728898E-4-5.352758099907778E-9i       -1.1768270033896827E-7-1.0171682145327883E-11i    -4.256892225975861E-4+2.715924664150856E-10i
0.010727272727272728      0                        0.0015                   -2.5307894823726064E-4-5.278791829703143E-9i      -3.280783539257818E-6+5.306816764797936E-12i      -3.824456036752213E-4+3.88594700613668E-10i
0.011090909090909092      0                        0.0015                   -2.1166510433390934E-4-5.1368425564789254E-9i     -5.367025930915609E-6+1.9559690456605298E-11i     -3.7254985530099996E-4+6.567835680416134E-10i
0.011454545454545453      0                        0.0015                   -1.8548063277464086E-4-5.012192889995478E-9i      -1.8333029758758543E-6-1.1467752596647607E-11i    -3.440404221668695E-4+8.677106394328069E-10i
0.011818181818181818      0                        0.0015                   -1.602331189335213E-4-4.873118418128429E-9i       1.7305941485881021E-6-3.5331422637408555E-12i     -3.145676687441618E-4+1.0303833382149714E-9i
0.012181818181818183      0                        0.0015                   -1.3498560509240176E-4-4.734043946261214E-9i      5.294491273053793E-6+4.401468069007077E-12i       -2.8509491532145703E-4+1.1930560369973478E-9i
0.012545454545454547      0                        0.0015                   -1.1861609723289786E-4-4.564127649736451E-9i      1.4854211255169083E-6-1.0010011437427622E-11i     -2.618758879340109E-4+1.2914345137399027E-9i
0.012909090909090908      0                        0.0015                   -9.862602776392468E-5-4.394097752258638E-9i       2.573204281331289E-6+2.0254494662494256E-11i      -2.515821440106003E-4+1.4914623839703631E-9i
0.013272727272727276      0                        0.0015                   -8.528025695696521E-5-4.218017476178683E-9i       1.0149833803414863E-6-5.910077183757703E-12i      -2.3892554682355732E-4+1.6297165536871578E-9i
0.013636363636363634      0                        0.0015                   -7.193448615000676E-5-4.041937200098617E-9i       -5.432375206486416E-7-3.207464902995672E-11i      -2.2626894963651516E-4+1.7679707234039524E-9i
0.013999999999999999      0                        0.0015                   -6.119066444300022E-5-3.873352844720472E-9i       -1.2975121153861198E-6-1.5929068006153263E-11i    -2.1222823906624148E-4+1.869190174810477E-9i
0.014363636363636363      0                        0.0015                   -5.408773155688817E-5-3.6989812182291676E-9i      -3.485942521083544E-7-5.578426433342091E-12i      -1.9621439356002864E-4+1.9473669501871227E-9i
0.014727272727272728      0                        0.0015                   -4.698479867077635E-5-3.5246095917377575E-9i      6.003236111692213E-7+4.772215139389671E-12i       -1.802005480538158E-4+2.0255437255635565E-9i
0.015090909090909092      0                        0.0015                   -3.9841938300509976E-5-3.3561647678398067E-9i     1.1848529742138243E-6+9.626602430694889E-12i      -1.7447531482012776E-4+2.1340102691090056E-9i
0.015454545454545457      0                        0.0015                   -3.5676134099644314E-5-3.193668781041509E-9i      6.500285969096055E-7-3.3879592431383595E-12i      -1.6058729410361365E-4+2.195251920831948E-9i
0.01581818181818182       0                        0.0015                   -3.1875715821798214E-5-3.004477080782063E-9i      -4.533307154757065E-7+1.5738250010371242E-11i     -1.4993686583999002E-4+2.2657761287083868E-9i
0.016181818181818186      0                        0.0015                   -2.7396099238349045E-5-2.803046611598773E-9i      -2.416573423899386E-7+7.301489494875526E-12i      -1.4348774022204715E-4+2.353827952697267E-9i
0.016545454545454544      0                        0.0015                   -2.2916482654899604E-5-2.60161614241551E-9i       -2.998396930438754E-8-1.1352710205407808E-12i     -1.370386146041039E-4+2.4418797766861272E-9i
0.01690909090909091       0                        0.0015                   -1.8686043935320406E-5-2.3734937124456646E-9i     4.840944056057599E-7-3.076477054724817E-11i       -1.3041055302138202E-4+2.5207142643745947E-9i
0.017272727272727273      0                        0.0015                   -1.6644349473466562E-5-2.148013037786399E-9i      1.4818925144946104E-6+9.403061230016301E-12i      -1.227244475131722E-4+2.581056793581654E-9i
0.017636363636363638      0                        0.0015                   -1.4315224022563508E-5-1.936179768683656E-9i      6.716173404203683E-7+1.464165832540037E-11i       -1.1628326289919064E-4+2.5824592470721127E-9i
0.018000000000000002      0                        0.0015                   -1.1986098571660562E-5-1.724346499580807E-9i      -1.3865783365449714E-7+1.988025542100943E-11i     -1.0984207828520771E-4+2.583861700561777E-9i
