% Model:              FEA_only_electromagnet.mph
% Version:            COMSOL 5.1.0.145
% Date:               Jun 23 2022, 13:00
% Dimension:          3
% Nodes:              100
% Expressions:        3
% Description:        Magnetic flux density, x component, Magnetic flux density, y component, Magnetic flux density, z component
% Length unit:        m
% x                       y                        z                        mf.Bx (T) @ freq=20000                            mf.By (T) @ freq=20000                            mf.Bz (T) @ freq=20000
-0.018000000000000002     0                        0.0015                   1.2615714704253137E-5-5.187842959241902E-11i      -5.531006768508956E-7+2.484360652830957E-12i      -1.10480290800008E-4+5.022834951841745E-10i
-0.017636363636363638     0                        0.0015                   1.4475419534450433E-5-5.962713897511971E-11i      -3.316988726749081E-7+1.5661510329505155E-12i     -1.1629767602240176E-4+5.255139837336872E-10i
-0.017272727272727276     0                        0.0015                   1.6335124364647458E-5-6.737584835782103E-11i      -1.1029706849870376E-7+6.479414130725554E-13i     -1.2211506124479548E-4+5.487444722831986E-10i
-0.016909090909090912     0                        0.0015                   1.874017715612427E-5-7.788416837969774E-11i       4.372626885617084E-8-2.7431885238311353E-13i      -1.3014878897502557E-4+5.809189079386101E-10i
-0.016545454545454547     0                        0.0015                   2.2975040909968883E-5-9.64843964775312E-11i       3.748958162931408E-7-1.7109786963462004E-12i      -1.3611170919781155E-4+6.038279931561667E-10i
-0.016181818181818183     0                        0.0015                   2.7209904663813415E-5-1.1508462457536498E-10i     7.060653637303818E-7-3.1476385403088736E-12i      -1.4207462942059736E-4+6.267370783737208E-10i
-0.01581818181818182      0                        0.0015                   3.2657667432554167E-5-1.3844882510406936E-10i     1.0235631788605955E-6-4.639791645800104E-12i      -1.5144398611172225E-4+6.635783502612259E-10i
-0.015454545454545457     0                        0.0015                   3.661791885585508E-5-1.5551240263162541E-10i      1.1249151621347923E-6-5.193507803998616E-12i      -1.6022123107829246E-4+6.98117668272362E-10i
-0.015090909090909092     0                        0.0015                   4.202093107469936E-5-1.791474124408863E-10i       -1.5444245383409213E-6+7.228559387527744E-12i     -1.7157626358430266E-4+7.43326384881652E-10i
-0.01472727272727273      0                        0.0015                   4.647391937729814E-5-1.979469487610286E-10i       -1.983624092074133E-6+9.101212881780738E-12i      -1.8447934905372796E-4+7.945029311201123E-10i
-0.014363636363636365     0                        0.0015                   5.4950863325960045E-5-2.3423268163550096E-10i     -7.771026819349859E-7+2.342214246371726E-12i      -1.911873892731441E-4+8.191104256120394E-10i
-0.014000000000000002     0                        0.0015                   6.153462717370861E-5-2.6217380734529447E-10i      4.780123604366669E-7-2.752312755956905E-12i       -2.098693531112786E-4+8.928557300282548E-10i
-0.013636363636363637     0                        0.0015                   7.464379445887574E-5-3.1811413057409007E-10i      5.635831948818575E-6-2.2860390839383405E-11i      -2.205501418420467E-4+9.331086520182403E-10i
-0.013272727272727275     0                        0.0015                   8.616799226954599E-5-3.6778630441978244E-10i      2.553694573113557E-6-9.910490967951172E-12i       -2.4277496613093618E-4+1.0201820659600143E-9i
-0.012909090909090912     0                        0.0015                   9.955651079162102E-5-4.2493908706309137E-10i      1.6731993628768971E-6-6.679078496089133E-12i      -2.6294318770016863E-4+1.099402036896007E-9i
-0.012545454545454547     0                        0.0015                   1.1876629074763481E-4-5.071659455772141E-10i      6.430043593789743E-7-2.5001609116922402E-12i      -2.7705470949192365E-4+1.1524853195074039E-9i
-0.012181818181818183     0                        0.0015                   1.3797607070365126E-4-5.893928040913405E-10i      -3.871906441188402E-7+1.6787566727044459E-12i     -2.9116623128367823E-4+1.205568602118795E-9i
-0.01181818181818182      0                        0.0015                   1.5718585065966565E-4-6.716196626054638E-10i      -1.4173856476166818E-6+5.8576742571015455E-12i    -3.052777530754324E-4+1.2586518847301894E-9i
-0.011454545454545457     0                        0.0015                   1.8089718677940245E-4-7.727434765916926E-10i      2.7454231895317725E-7-1.924418528727937E-12i      -3.336177037897639E-4+1.3678167229903458E-9i
-0.011090909090909092     0                        0.0015                   2.0456302875008136E-4-8.741116439117175E-10i      -3.4261767468742477E-6+1.501752676278129E-11i     -3.8146064096252754E-4+1.5574212627015152E-9i
-0.010727272727272728     0                        0.0015                   2.530257871690613E-4-1.0792043579655184E-9i       -2.1224211574674256E-6+9.385847483958968E-12i     -4.0397951371730486E-4+1.6399701742943208E-9i
-0.010363636363636365     0                        0.0015                   3.014885455880419E-4-1.2842970720193276E-9i       -8.186655680606034E-7+3.754168205131682E-12i      -4.264983864720826E-4+1.7225190858871263E-9i
-0.010000000000000002     0                        0.0015                   3.4995130400702185E-4-1.4893897860731342E-9i      4.850900213457579E-7-1.877511073690227E-12i       -4.490172592268582E-4+1.8050679974799352E-9i
-0.009636363636363637     0                        0.0015                   3.984140624260019E-4-1.694482500126938E-9i        1.7888456107519567E-6-7.509190352514204E-12i      -4.715361319816355E-4+1.8876169090727374E-9i
-0.009272727272727274     0                        0.0015                   5.061237916507578E-4-2.148746838805011E-9i        3.4475007102424075E-5-1.4289400398953277E-10i     -5.239172136440127E-4+2.0844933628400847E-9i
-0.00890909090909091      0                        0.0015                   6.019305597109036E-4-2.5527627611674902E-9i       -7.4363195978821095E-6+3.1564869028361624E-11i    -5.513742232356664E-4+2.1814668904649697E-9i
-0.008545454545454547     0                        0.0015                   7.374878063804036E-4-3.1236142622301357E-9i       -4.014526541881269E-6+1.746701498410798E-11i      -6.595436996482962E-4+2.6009463680592916E-9i
-0.008181818181818182     0                        0.0015                   8.730450530499007E-4-3.694465763292768E-9i        -5.927334858809707E-7+3.3691609398601283E-12i     -7.677131760609295E-4+3.0204258456536233E-9i
-0.00781818181818182      0                        0.0015                   0.0011020697028576527-4.656181275538676E-9i       8.612296916747446E-6-3.1626818941781766E-11i      -7.439110052360914E-4+2.873061791580888E-9i
-0.007454545454545455     0                        0.0015                   0.0013285594196075687-5.588836641535287E-9i       -5.45395948818521E-7+4.8873442126781525E-12i      -6.832454497565921E-4+2.596081330534598E-9i
-0.007090909090909092     0                        0.0015                   0.001637736025416644-6.858496779170464E-9i        1.2171074905049234E-5-4.464349688284125E-11i      -7.774058763121514E-4+2.9394276266418875E-9i
-0.006727272727272728     0                        0.0015                   0.002032690934465571-8.469915305894178E-9i        -1.7249622784400002E-5+7.21671556887048E-11i      -8.176717362932224E-4+2.9947069275456824E-9i
-0.006363636363636365     0                        0.0015                   0.002555539010438367-1.0550149806119009E-8i       -1.675209035816895E-5+6.242515446552282E-11i      -6.744976174892835E-4+2.359395326038243E-9i
-0.006000000000000002     0                        0.0015                   0.0030790885137089398-1.2644670193352696E-8i      5.094971671980048E-5-1.9756852002258595E-10i      5.9906582909113954E-5-6.016648609076652E-10i
-0.005636363636363637     0                        0.0015                   0.0033123237981240515-1.35956087018575E-8i        5.219739291378387E-5-2.0285513758301653E-10i      3.260607556204341E-4-1.7175229836688572E-9i
-0.005272727272727274     0                        0.0015                   0.004434095466597912-1.8157713728481826E-8i       -2.0808120144102357E-5+8.55715768198952E-11i      8.667439276219343E-4-3.857760217265781E-9i
-0.00490909090909091      0                        0.0015                   0.004549397394215853-1.8712435702515394E-8i       5.4669941605554515E-6-2.7267926048921896E-11i     0.002032895273781814-8.63136405103092E-9i
-0.004545454545454547     0                        0.0015                   0.004589645088267734-1.8916042182359102E-8i       -8.10521655344971E-6+3.251161034268424E-11i       0.0029924948438129232-1.264254104328812E-8i
-0.004181818181818182     0                        0.0015                   0.004327322960202412-1.783922329835262E-8i        -1.4481578629344321E-5+5.249570116873781E-11i     0.004271623376945813-1.8015841175816915E-8i
-0.0038181818181818195    0                        0.0015                   0.003760327375337071-1.5533684189121282E-8i       -2.947379166367192E-6+9.734422574223671E-12i      0.0051227166580790975-2.137026683059946E-8i
-0.003454545454545455     0                        0.0015                   0.003179471021150288-1.3217604098611264E-8i       -1.1250020681765087E-5+4.194029774745035E-11i     0.0051510615482007645-2.1624013471504652E-8i
-0.003090909090909092     0                        0.0015                   0.0025986146669635182-1.0901524008101295E-8i      -1.9552662197162493E-5+7.414617292066586E-11i     0.005179406438322421-2.187776011240983E-8i
-0.0027272727272727275    0                        0.0015                   0.002117718664171116-8.933158604077374E-9i        -1.522650568188469E-4+6.176573020647198E-10i      0.005242518861971322-2.21990339380392E-8i
-0.002363636363636363     0                        0.0015                   0.0016641409640111935-7.027971377531077E-9i       1.0840145011884253E-5-3.715959832606456E-11i      0.00532073556599141-2.2603194000056245E-8i
-0.0020000000000000018    0                        0.0015                   0.0013690932469557875-5.792658915577852E-9i       2.025808688864688E-5-7.576060534587633E-11i       0.00535114150586072-2.278228854118978E-8i
-0.0016363636363636372    0                        0.0015                   0.0010740455299003775-4.5573464536246205E-9i      2.9676028765416446E-5-1.1436161236570795E-10i     0.005381547445730019-2.2961383082323307E-8i
-0.0012727272727272726    0                        0.0015                   7.742112436177491E-4-3.2910477064420105E-9i       1.2001440996599626E-5-5.038594141426169E-11i      0.0053479552301830486-2.286555217246397E-8i
-9.09090909090908E-4      0                        0.0015                   5.454260992566059E-4-2.3186761107505026E-9i       6.48497060798247E-6-2.5509071518377014E-11i       0.005311412283559961-2.2730451808230693E-8i
-5.454545454545469E-4     0                        0.0015                   3.3032887725841203E-4-1.4026897052095868E-9i      2.841502056286256E-6-1.1830058420238687E-11i      0.005305585388215916-2.272085636779977E-8i
-1.818181818181823E-4     0                        0.0015                   1.0597400858605136E-4-4.5065656171176896E-10i     -5.010983413029457E-6+1.981705364615065E-11i      0.005291577142611803-2.2668413894700528E-8i
1.818181818181823E-4      0                        0.0015                   -1.1887660921293484E-4+5.042580934898027E-10i     -1.3348916144211107E-5+5.4221028897840235E-11i    0.005280256241591039-2.262374130705882E-8i
5.454545454545434E-4      0                        0.0015                   -3.3274654874916056E-4+1.4147094266519727E-9i     -1.0153498104178722E-5+4.16636870728437E-11i      0.005292298854623953-2.2665421962865993E-8i
9.09090909090908E-4       0                        0.0015                   -5.466164882853911E-4+2.325160759814164E-9i       -6.958080064147203E-6+2.910634524785254E-11i      0.005304341467656864-2.2707102618673165E-8i
0.0012727272727272726     0                        0.0015                   -7.661990796419998E-4+3.2560942975086004E-9i      -2.2236052752215053E-5+8.669747510437214E-11i     0.00533902362617183-2.2834099842808605E-8i
0.0016363636363636372     0                        0.0015                   -0.0010752356266591821+4.5590475096998606E-9i     -4.938390360155389E-5+1.9202254465482745E-10i     0.0053889840510394854-2.2985504903944392E-8i
0.0019999999999999983     0                        0.0015                   -0.001362046138913519+5.761908969260019E-9i       -2.3174469682539327E-5+8.448660328851333E-11i     0.0053692902602152995-2.2854198658597668E-8i
0.002363636363636363      0                        0.0015                   -0.0016488566511678542+6.964770428820169E-9i      3.0349642364820126E-6-2.30493380778316E-11i       0.005349596469391112-2.2722892413250937E-8i
0.0027272727272727275     0                        0.0015                   -0.0020575098702044336+8.680074021543952E-9i      -1.8703891178986631E-6+4.982188421003358E-12i     0.004996217310245048-2.1191254984663892E-8i
0.003090909090909092      0                        0.0015                   -0.002405524531484818+1.0170645942105773E-8i      6.060927812700156E-6-2.527745217778008E-11i       0.0050650625617366446-2.1446393154735785E-8i
0.003454545454545453      0                        0.0015                   -0.0031150740752526234+1.2965839133058981E-8i     4.249543778281707E-6-1.581319571198263E-11i       0.005054701409936302-2.12366376614272E-8i
0.003818181818181818      0                        0.0015                   -0.0038096490766702153+1.5704168906527873E-8i     1.2777968950379083E-6-1.864240247611242E-12i      0.0050684629888051655-2.1121085577638947E-8i
0.004181818181818182      0                        0.0015                   -0.004332338820983743+1.7869763243476965E-8i      7.569928421855151E-6-3.682835236108186E-11i       0.004379211984295816-1.848026282490531E-8i
0.004545454545454547      0                        0.0015                   -0.004560740880090768+1.8786860893289102E-8i      7.116782624118606E-6-3.4814083271460016E-11i      0.0030746061843181065-1.2956816993588622E-8i
0.004909090909090908      0                        0.0015                   -0.004513942920116537+1.855802627632095E-8i       -9.709166392307211E-6+4.617584853022109E-11i      0.0021701447265941587-9.16823904640695E-9i
0.005272727272727273      0                        0.0015                   -0.004326315304965452+1.7722176934933763E-8i      -2.702717265799456E-5+1.0808703044405867E-10i     8.445385756666104E-4-3.804923634767138E-9i
0.005636363636363637      0                        0.0015                   -0.003913627225090303+1.5938865741607582E-8i      -2.6486476640750296E-5+9.767898089707595E-11i     -1.3093318501633533E-7-4.609573333327131E-10i
0.005999999999999998      0                        0.0015                   -0.0030401353674122784+1.2493136736834209E-8i     2.0707333763706306E-5-8.49390339239481E-11i       -2.1771903250271223E-4+5.036290087234798E-10i
0.006363636363636363      0                        0.0015                   -0.002663394455365993+1.0976704884694459E-8i      -1.888852901220557E-5+7.455495249422029E-11i      -4.140654051893659E-4+1.3438155184631256E-9i
0.006727272727272728      0                        0.0015                   -0.0022866535433196996+9.460273032554677E-9i      -5.848439178811815E-5+2.3404893891238805E-10i     -6.104117778760161E-4+2.18400202820277E-9i
0.007090909090909092      0                        0.0015                   -0.0016689537402063358+6.978157294493457E-9i      1.6699785299779425E-5-5.511675116803973E-11i      -7.9636142053286E-4+3.002615100174389E-9i
0.007454545454545453      0                        0.0015                   -0.0012975813125358038+5.4587155446215225E-9i     -8.774928228665827E-6+3.76020783108849E-11i       -6.433044478954056E-4+2.4405571993570586E-9i
0.007818181818181818      0                        0.0015                   -0.0011114484713550352+4.685820329480584E-9i      -1.215993810081261E-6+6.869641725712633E-12i      -6.731623238921139E-4+2.5912754344720356E-9i
0.008181818181818182      0                        0.0015                   -8.922766238594443E-4+3.772485832990855E-9i       -3.506535542493398E-6+1.529433842186032E-11i      -7.000863617899705E-4+2.7364486933318617E-9i
0.008545454545454547      0                        0.0015                   -7.171377627152486E-4+3.0382643647631452E-9i      4.627110071118881E-6-1.7934960821950275E-11i      -6.943026641783325E-4+2.7462530840813838E-9i
0.008909090909090908      0                        0.0015                   -6.053110885881558E-4+2.5674262926440823E-9i      1.0621129524972066E-6-4.563013502115831E-12i      -5.991868486571487E-4+2.3772206373441834E-9i
0.009272727272727273      0                        0.0015                   -5.087742537672598E-4+2.1594173433483755E-9i      -3.1290582715465948E-6+1.3416157162366005E-11i    -5.075747614485418E-4+2.01683405646933E-9i
0.009636363636363637      0                        0.0015                   -4.0173696948195324E-4+1.707104470043603E-9i      -5.936583746754933E-6+2.5364846663128075E-11i     -5.105389845296406E-4+2.0467909605543254E-9i
0.010000000000000002      0                        0.0015                   -3.4375949420660393E-4+1.4619507359327412E-9i     -3.0369468078730866E-6+1.3127808648286687E-11i    -4.5055070845328657E-4+1.8105218262293532E-9i
0.010363636363636363      0                        0.0015                   -3.021746489667186E-4+1.286372642204997E-9i       -1.1768698873586281E-7+4.0409745089217084E-13i    -4.2568983101965926E-4+1.720865393275107E-9i
0.010727272727272728      0                        0.0015                   -2.5308151716332166E-4+1.0798831204332731E-9i     -3.280786767019409E-6+1.4036770348888207E-11i     -3.8244609062873264E-4+1.5527773927267292E-9i
0.011090909090909092      0                        0.0015                   -2.1166754612340086E-4+9.037268085223376E-10i     -5.367026897683562E-6+2.3078793095927212E-11i     -3.725502158403566E-4+1.5215761444142694E-9i
0.011454545454545453      0                        0.0015                   -1.8548297989216876E-4+7.921292852005142E-10i     -1.8333106781001293E-6+7.4743306571485E-12i       -3.440406484111118E-4+1.4111009099224067E-9i
0.011818181818181818      0                        0.0015                   -1.6023536715838432E-4+6.845301527835372E-10i     1.7305956754015E-6-7.242117072906012E-12i         -3.145677785871447E-4+1.29619796533347E-9i
0.012181818181818183      0                        0.0015                   -1.3498775442460063E-4+5.769310203665634E-10i     5.294502028899226E-6-2.1958564802952252E-11i      -2.8509490876318076E-4+1.1812950207445496E-9i
0.012545454545454547      0                        0.0015                   -1.1861815005530517E-4+5.071027418612339E-10i     1.4854195245379018E-6-6.9407915854603706E-12i     -2.6187580175504447E-4+1.0906973097568484E-9i
0.012909090909090908      0                        0.0015                   -9.862797801103696E-5+4.2172457469624675E-10i     2.5732168225881674E-6-1.1074837139697222E-11i     -2.5158195882664966E-4+1.0529292297833338E-9i
0.013272727272727276      0                        0.0015                   -8.528211332684558E-5+3.6425570208020457E-10i     1.0149826836778394E-6-4.34994798926649E-12i       -2.3892528378168616E-4+1.0049085937908775E-9i
0.013636363636363634      0                        0.0015                   -7.193624864265426E-5+3.067868294641623E-10i      -5.432514552327055E-7+2.3749411611634145E-12i     -2.2626860873672228E-4+9.568879577984187E-10i
0.013999999999999999      0                        0.0015                   -6.119234044389948E-5+2.605276184732722E-10i      -1.297520726526702E-6+5.775714266006085E-12i      -2.1222783308100126E-4+9.026627261623098E-10i
0.014363636363636363      0                        0.0015                   -5.408932476938782E-5+2.3038190255556579E-10i     -3.4859705790926123E-7+1.8291881401472513E-12i    -1.9621392859438085E-4+8.392903889795654E-10i
0.014727272727272728      0                        0.0015                   -4.6986309094876376E-5+2.002361866378569E-10i     6.00326610708193E-7-2.1173379857101863E-12i       -1.8020002410776195E-4+7.759180517968259E-10i
0.015090909090909092      0                        0.0015                   -3.9843368417162627E-5+1.6868909642127617E-10i    1.1848588416712774E-6-5.3509858239011835E-12i     -1.7447473696670683E-4+7.549340348687445E-10i
0.015454545454545457      0                        0.0015                   -3.567749116086566E-5+1.512140102487996E-10i      6.500282910141056E-7-2.9695710381000763E-12i      -1.6058666781353396E-4+6.996509247866019E-10i
0.01581818181818182       0                        0.0015                   -3.187698961306046E-5+1.3510228469906076E-10i     -4.533250823630236E-7+2.019290533253046E-12i      -1.4993619278662015E-4+6.576300802509714E-10i
0.016181818181818186      0                        0.0015                   -2.7397283725580433E-5+1.1555385225771262E-10i    -2.41654779604885E-7+1.0512593594697354E-12i      -1.4348702045153893E-4+6.327332728462189E-10i
0.016545454545454544      0                        0.0015                   -2.291757783809997E-5+9.600541981636573E-11i      -2.99844768468548E-8+8.322818568663188E-14i       -1.3703784811645753E-4+6.078364654414672E-10i
0.01690909090909091       0                        0.0015                   -1.8687039393639805E-5+7.777913658703419E-11i     4.840827237430345E-7-2.426896992207723E-12i       -1.3040974326923571E-4+5.820006937617588E-10i
0.017272727272727273      0                        0.0015                   -1.664524994802758E-5+6.881670916877675E-11i      1.4818987972293595E-6-6.587916347329558E-12i      -1.227236002951332E-4+5.511013277873173E-10i
0.017636363636363638      0                        0.0015                   -1.4316034562069572E-5+5.886210036132303E-11i     6.716244085162599E-7-2.9528500744553063E-12i      -1.1628240421115298E-4+5.253041659195528E-10i
0.018000000000000002      0                        0.0015                   -1.1986819176111564E-5+4.8907491553871784E-11i    -1.386499801974225E-7+6.822161984131551E-13i      -1.0984120812717203E-4+4.995070040517833E-10i
