% Model:              FEA.mph
% Version:            COMSOL 6.0.0.318
% Date:               Oct 30 2022, 19:01
% Dimension:          3
% Nodes:              2500
% Expressions:        1
% Description:        Current density, y component
% Length unit:        m
% x                       y                        z                        mf.Jy (A/m^2) @ freq=50000, Switch 1=Liver
0                         0                        -0.01                    -3.879931581032234E-9+9.399589578702903E-9i
6.122448979591836E-4      0                        -0.01                    5.4696106632884955E-6-1.3252423618485918E-5i
0.0012244897959183673     0                        -0.01                    1.0865870707767893E-5-2.632712315181833E-5i
0.001836734693877551      0                        -0.01                    1.618490020185713E-5-3.9214699010418464E-5i
0.0024489795918367346     0                        -0.01                    2.1426699145556252E-5-5.191515119428643E-5i
0.003061224489795918      0                        -0.01                    2.6646256277028758E-5-6.456170897879322E-5i
0.003673469387755102      0                        -0.01                    3.1180683472480634E-5-7.554825017986293E-5i
0.004285714285714285      0                        -0.01                    3.5382680479756013E-5-8.572934331132002E-5i
0.004897959183673469      0                        -0.01                    3.923050809259034E-5-9.505231177090045E-5i
0.005510204081632653      0                        -0.01                    4.2724166310983505E-5-1.0351715555860397E-4i
0.006122448979591836      0                        -0.01                    4.588340168281072E-5-1.1117171694767757E-4i
0.00673469387755102       0                        -0.01                    4.873627723777702E-5-1.1808398297675924E-4i
0.007346938775510204      0                        -0.01                    5.122671757188282E-5-1.2411809763559714E-4i
0.007959183673469388      0                        -0.01                    5.335472268512808E-5-1.2927406092419112E-4i
0.00857142857142857       0                        -0.01                    5.512029257751286E-5-1.3355187284254134E-4i
0.009183673469387754      0                        -0.01                    5.6782604615806815E-5-1.3757940757250125E-4i
0.009795918367346938      0                        -0.01                    5.773444421619724E-5-1.398856062374974E-4i
0.010408163265306122      0                        -0.01                    5.8385070630639105E-5-1.4146199045518782E-4i
0.011020408163265306      0                        -0.01                    5.873448385913223E-5-1.4230856022557216E-4i
0.011632653061224489      0                        -0.01                    5.878268390167673E-5-1.424253155486507E-4i
0.012244897959183673      0                        -0.01                    5.8698925645585964E-5-1.4222234434456657E-4i
0.012857142857142857      0                        -0.01                    5.845769667000004E-5-1.4163783194203052E-4i
0.01346938775510204       0                        -0.01                    5.80002604271302E-5-1.405294676077766E-4i
0.014081632653061223      0                        -0.01                    5.732661691697664E-5-1.388972513418053E-4i
0.014693877551020407      0                        -0.01                    5.6436766139539274E-5-1.3674118314411634E-4i
0.015306122448979591      0                        -0.01                    5.611789199826492E-5-1.3596840667366432E-4i
0.015918367346938776      0                        -0.01                    5.5278287689205515E-5-1.339340434312599E-4i
0.01653061224489796       0                        -0.01                    5.431936341049102E-5-1.3161057792210177E-4i
0.01714285714285714       0                        -0.01                    5.3241119162121306E-5-1.289980101461896E-4i
0.017755102040816324      0                        -0.01                    5.204355494409651E-5-1.2609634010352365E-4i
0.01836734693877551       0                        -0.01                    5.095506319359277E-5-1.2345892138516292E-4i
0.018979591836734692      0                        -0.01                    4.982898345371162E-5-1.2073042638305568E-4i
0.019591836734693877      0                        -0.01                    4.863190406453921E-5-1.1782990499522135E-4i
0.02020408163265306       0                        -0.01                    4.736382502607549E-5-1.1475735722165983E-4i
0.020816326530612245      0                        -0.01                    4.6024746338320496E-5-1.1151278306237117E-4i
0.02142857142857143       0                        -0.01                    4.547210057903524E-5-1.101735654260625E-4i
0.022040816326530613      0                        -0.01                    4.4535938055507525E-5-1.079051676616958E-4i
0.022653061224489793      0                        -0.01                    4.356743464650168E-5-1.0555841028330248E-4i
0.023265306122448978      0                        -0.01                    4.256659035201775E-5-1.0313329329088271E-4i
0.02387755102040816       0                        -0.01                    4.153340517205568E-5-1.0062981668443629E-4i
0.024489795918367346      0                        -0.01                    4.066375158157263E-5-9.852254433187709E-5i
0.02510204081632653       0                        -0.01                    3.9792310750741526E-5-9.641093979356755E-5i
0.025714285714285714      0                        -0.01                    3.8905066522287706E-5-9.426104448613466E-5i
0.026326530612244898      0                        -0.01                    3.8002018896211086E-5-9.207285840957824E-5i
0.02693877551020408       0                        -0.01                    3.708316787251182E-5-8.984638156389865E-5i
0.027551020408163263      0                        -0.01                    3.679789845386992E-5-8.915488922205106E-5i
0.028163265306122447      0                        -0.01                    3.626584924453667E-5-8.786544341419719E-5i
0.02877551020408163       0                        -0.01                    3.572909342893138E-5-8.656459334784237E-5i
0.029387755102040815      0                        -0.01                    3.5187631007054036E-5-8.525233902298651E-5i
0.03                      0                        -0.01                    3.464146197890461E-5-8.392868043962961E-5i
0                         0                        -0.009795918367346938    -7.583683197069108E-10+1.8364191907928868E-9i
6.122448979591836E-4      0                        -0.009795918367346938    5.697707463937241E-6-1.3805083881857744E-5i
0.0012244897959183673     0                        -0.009795918367346938    1.1318942745804064E-5-2.7424880508174087E-5i
0.001836734693877551      0                        -0.009795918367346938    1.6862947477280737E-5-4.0857553459758165E-5i
0.0024489795918367346     0                        -0.009795918367346938    2.2329721658367286E-5-5.410310273661007E-5i
0.003061224489795918      0                        -0.009795918367346938    2.6292135901442225E-5-6.370369972563949E-5i
0.003673469387755102      0                        -0.009795918367346938    3.226061470958536E-5-7.81648380087495E-5i
0.004285714285714285      0                        -0.009795918367346938    3.660330306524323E-5-8.868681462151278E-5i
0.004897959183673469      0                        -0.009795918367346938    4.059182202646001E-5-9.835066656239929E-5i
0.005510204081632653      0                        -0.009795918367346938    4.4226171593235714E-5-1.0715639383140911E-4i
0.006122448979591836      0                        -0.009795918367346938    4.745673892211511E-5-1.149837839447321E-4i
0.00673469387755102       0                        -0.009795918367346938    5.03929543183841E-5-1.2209797526007045E-4i
0.007346938775510204      0                        -0.009795918367346938    5.296673449379253E-5-1.2833401520516492E-4i
0.007959183673469388      0                        -0.009795918367346938    5.517807944834045E-5-1.3369190378001555E-4i
0.00857142857142857       0                        -0.009795918367346938    5.636945317369283E-5-1.365784722848228E-4i
0.009183673469387754      0                        -0.009795918367346938    5.8281716396839806E-5-1.4121168050969772E-4i
0.009795918367346938      0                        -0.009795918367346938    5.932226259415036E-5-1.4373276173309165E-4i
0.010408163265306122      0                        -0.009795918367346938    5.997029782605506E-5-1.453028675179486E-4i
0.011020408163265306      0                        -0.009795918367346938    6.031711987201102E-5-1.4614315885549947E-4i
0.011632653061224489      0                        -0.009795918367346938    6.036272873201834E-5-1.462536357457445E-4i
0.012244897959183673      0                        -0.009795918367346938    6.0216226419836175E-5-1.4589863520756034E-4i
0.012857142857142857      0                        -0.009795918367346938    5.995898781776604E-5-1.4527533273343636E-4i
0.01346938775510204       0                        -0.009795918367346938    5.948554194841207E-5-1.4412817832759473E-4i
0.014081632653061223      0                        -0.009795918367346938    5.8795888811774284E-5-1.4245717199003544E-4i
0.014693877551020407      0                        -0.009795918367346938    5.728367439586628E-5-1.3879312789583125E-4i
0.015306122448979591      0                        -0.009795918367346938    5.721199104085731E-5-1.3861931926679986E-4i
0.015918367346938776      0                        -0.009795918367346938    5.6342701807651805E-5-1.3651303203843866E-4i
0.01653061224489796       0                        -0.009795918367346938    5.5354092604791225E-5-1.3411764254332373E-4i
0.01714285714285714       0                        -0.009795918367346938    5.42461634322755E-5-1.3143315078145492E-4i
0.017755102040816324      0                        -0.009795918367346938    5.3018914290104685E-5-1.2845955675283235E-4i
0.01836734693877551       0                        -0.009795918367346938    5.190831497159883E-5-1.257685728048595E-4i
0.018979591836734692      0                        -0.009795918367346938    5.075514463271906E-5-1.2297443966376935E-4i
0.019591836734693877      0                        -0.009795918367346938    4.9530974644548E-5-1.2000828013695204E-4i
0.02020408163265306       0                        -0.009795918367346938    4.823580500708565E-5-1.1687009422440752E-4i
0.020816326530612245      0                        -0.009795918367346938    4.712534521733542E-5-1.1417939373443E-4i
0.02142857142857143       0                        -0.009795918367346938    4.606966551814578E-5-1.1162142787513937E-4i
0.022040816326530613      0                        -0.009795918367346938    4.511358373724893E-5-1.093047674702527E-4i
0.022653061224489793      0                        -0.009795918367346938    4.4125161070874E-5-1.0690974745133957E-4i
0.023265306122448978      0                        -0.009795918367346938    4.310439751902097E-5-1.0443636781839994E-4i
0.02387755102040816       0                        -0.009795918367346938    4.205247565283914E-5-1.0188749372616833E-4i
0.024489795918367346      0                        -0.009795918367346938    4.118005002638481E-5-9.977350359681152E-5i
0.02510204081632653       0                        -0.009795918367346938    4.029182100230775E-5-9.76212226983313E-5i
0.025714285714285714      0                        -0.009795918367346938    3.938778858060794E-5-9.54306510307277E-5i
0.026326530612244898      0                        -0.009795918367346938    3.846795276128539E-5-9.320178859400069E-5i
0.02693877551020408       0                        -0.009795918367346938    3.784342978912718E-5-9.168836766796956E-5i
0.027551020408163263      0                        -0.009795918367346938    3.7132814065026214E-5-8.99664434895739E-5i
0.028163265306122447      0                        -0.009795918367346938    3.659020797532659E-5-8.865141907065738E-5i
0.02877551020408163       0                        -0.009795918367346938    3.604289527935492E-5-8.732499039323992E-5i
0.029387755102040815      0                        -0.009795918367346938    3.5490875977111195E-5-8.598715745732138E-5i
0.03                      0                        -0.009795918367346938    3.4934150068595416E-5-8.463792026290188E-5i
0                         0                        -0.009591836734693878    6.736409644854274E-10-1.6330973565800241E-9i
6.122448979591836E-4      0                        -0.009591836734693878    5.924114710608861E-6-1.4353650491389052E-5i
0.0012244897959183673     0                        -0.009591836734693878    1.177032522986309E-5-2.8518544210689276E-5i
0.001836734693877551      0                        -0.009591836734693878    1.7539305198727194E-5-4.24963142552573E-5i
0.0024489795918367346     0                        -0.009591836734693878    2.2882259147933946E-5-5.544186122353474E-5i
0.003061224489795918      0                        -0.009591836734693878    2.7439707827691648E-5-6.648417637200276E-5i
0.003673469387755102      0                        -0.009591836734693878    3.339234587126075E-5-8.090693275565981E-5i
0.004285714285714285      0                        -0.009591836734693878    3.7875725575301195E-5-9.176979284972943E-5i
0.004897959183673469      0                        -0.009591836734693878    4.2004935884900494E-5-1.0177452827192214E-4i
0.005510204081632653      0                        -0.009591836734693878    4.577997680005872E-5-1.1092113902223818E-4i
0.006122448979591836      0                        -0.009591836734693878    4.9083849548151625E-5-1.1892613925935308E-4i
0.00673469387755102       0                        -0.009591836734693878    5.2103404785723196E-5-1.2624225586094792E-4i
0.007346938775510204      0                        -0.009591836734693878    5.4760524802434275E-5-1.32680221092299E-4i
0.007959183673469388      0                        -0.009591836734693878    5.663561028152818E-5-1.3722337062833836E-4i
0.00857142857142857       0                        -0.009591836734693878    5.8309720819928696E-5-1.4127958160363094E-4i
0.009183673469387754      0                        -0.009591836734693878    5.983367360622565E-5-1.449719432060356E-4i
0.009795918367346938      0                        -0.009591836734693878    6.0947671298657536E-5-1.4767099505074525E-4i
0.010408163265306122      0                        -0.009591836734693878    6.159311534802507E-5-1.4923482240276873E-4i
0.011020408163265306      0                        -0.009591836734693878    6.193734621144383E-5-1.50068835307486E-4i
0.011632653061224489      0                        -0.009591836734693878    6.198036388891404E-5-1.5017303376489764E-4i
0.012244897959183673      0                        -0.009591836734693878    6.176475050761516E-5-1.4965057713715974E-4i
0.012857142857142857      0                        -0.009591836734693878    6.149150227906073E-5-1.489884845914477E-4i
0.01346938775510204       0                        -0.009591836734693878    6.100204678322259E-5-1.478025401140182E-4i
0.014081632653061223      0                        -0.009591836734693878    5.9884181159809584E-5-1.450939816326298E-4i
0.014693877551020407      0                        -0.009591836734693878    5.9586734731451896E-5-1.4437321940686477E-4i
0.015306122448979591      0                        -0.009591836734693878    5.831714793637157E-5-1.4129702380930015E-4i
0.015918367346938776      0                        -0.009591836734693878    5.741817377902011E-5-1.391188125949825E-4i
0.01653061224489796       0                        -0.009591836734693878    5.639987965201355E-5-1.3665149911391104E-4i
0.01714285714285714       0                        -0.009591836734693878    5.526226555535181E-5-1.338950833660856E-4i
0.017755102040816324      0                        -0.009591836734693878    5.400533148903496E-5-1.3084956535150635E-4i
0.01836734693877551       0                        -0.009591836734693878    5.2872714386662644E-5-1.281052337140858E-4i
0.018979591836734692      0                        -0.009591836734693878    5.169245344878424E-5-1.2524546243401267E-4i
0.019591836734693877      0                        -0.009591836734693878    5.044119286161452E-5-1.222136647682123E-4i
0.02020408163265306       0                        -0.009591836734693878    4.911893262515357E-5-1.190098407166849E-4i
0.020816326530612245      0                        -0.009591836734693878    4.789528700876341E-5-1.1604490118233999E-4i
0.02142857142857143       0                        -0.009591836734693878    4.691292966552915E-5-1.136645821637825E-4i
0.022040816326530613      0                        -0.009591836734693878    4.569351234651764E-5-1.1070989843469154E-4i
0.022653061224489793      0                        -0.009591836734693878    4.4685170422773614E-5-1.0826661577525857E-4i
0.023265306122448978      0                        -0.009591836734693878    4.364448761355145E-5-1.0574497350179899E-4i
0.02387755102040816       0                        -0.009591836734693878    4.2588222223820765E-5-1.0318557395636366E-4i
0.024489795918367346      0                        -0.009591836734693878    4.16990084041205E-5-1.0103090746683623E-4i
0.02510204081632653       0                        -0.009591836734693878    4.0793991186797516E-5-9.883795020818544E-5i
0.025714285714285714      0                        -0.009591836734693878    3.987317057185174E-5-9.660670218041114E-5i
0.026326530612244898      0                        -0.009591836734693878    3.893873258660849E-5-9.43424525398251E-5i
0.02693877551020408       0                        -0.009591836734693878    3.835034729311356E-5-9.291656819669292E-5i
0.027551020408163263      0                        -0.009591836734693878    3.746786480408296E-5-9.077832506726521E-5i
0.028163265306122447      0                        -0.009591836734693878    3.691470183401693E-5-8.9437722037286E-5i
0.02877551020408163       0                        -0.009591836734693878    3.6356832257678906E-5-8.80857147488059E-5i
0.029387755102040815      0                        -0.009591836734693878    3.579425607506878E-5-8.672230320182465E-5i
0.03                      0                        -0.009591836734693878    3.5226973286186594E-5-8.534748739634242E-5i
0                         0                        -0.009387755102040816    4.1609627154459076E-10-1.0089600634153693E-9i
6.122448979591836E-4      0                        -0.009387755102040816    6.148832403303344E-6-1.489812344707981E-5i
0.0012244897959183673     0                        -0.009387755102040816    1.2220018159944993E-5-2.960811425936395E-5i
0.001836734693877551      0                        -0.009387755102040816    1.8015396369459796E-5-4.364984919431855E-5i
0.0024489795918367346     0                        -0.009387755102040816    2.3837449206818226E-5-5.775621039512003E-5i
0.003061224489795918      0                        -0.009387755102040816    2.8634200063201578E-5-6.937833715665857E-5i
0.003673469387755102      0                        -0.009387755102040816    3.4368484288283704E-5-8.32720543749926E-5i
0.004285714285714285      0                        -0.009387755102040816    3.9199948009929884E-5-9.497827799596984E-5i
0.004897959183673469      0                        -0.009387755102040816    4.3469849667911746E-5-1.0532389689946891E-4i
0.005510204081632653      0                        -0.009387755102040816    4.738558193145246E-5-1.1481139113109112E-4i
0.006122448979591836      0                        -0.009387755102040816    5.0815813329950786E-5-1.2312254567902546E-4i
0.00673469387755102       0                        -0.009387755102040816    5.3867628639794514E-5-1.305168247793921E-4i
0.007346938775510204      0                        -0.009387755102040816    5.660808849780821E-5-1.3715671529699968E-4i
0.007959183673469388      0                        -0.009387755102040816    5.8561198052018454E-5-1.4188891205573653E-4i
0.00857142857142857       0                        -0.009387755102040816    6.028951735652392E-5-1.460764572647693E-4i
0.009183673469387754      0                        -0.009387755102040816    6.172738100312345E-5-1.4956024040725167E-4i
0.009795918367346938      0                        -0.009387755102040816    6.260582485516764E-5-1.51688603103837E-4i
0.010408163265306122      0                        -0.009387755102040816    6.32535231965491E-5-1.53257855109648E-4i
0.011020408163265306      0                        -0.009387755102040816    6.359516287743073E-5-1.5408558958153188E-4i
0.011632653061224489      0                        -0.009387755102040816    6.363558937236375E-5-1.5418350960610995E-4i
0.012244897959183673      0                        -0.009387755102040816    6.334449790892284E-5-1.5347817013336467E-4i
0.012857142857142857      0                        -0.009387755102040816    6.30552400538843E-5-1.5277728751606488E-4i
0.01346938775510204       0                        -0.009387755102040816    6.23259785909008E-5-1.5101029594636264E-4i
0.014081632653061223      0                        -0.009387755102040816    6.137037695990089E-5-1.486949088934763E-4i
0.014693877551020407      0                        -0.009387755102040816    6.095212343348783E-5-1.4768144133309714E-4i
0.015306122448979591      0                        -0.009387755102040816    5.9628085560883633E-5-1.4447333078788937E-4i
0.015918367346938776      0                        -0.009387755102040816    5.850470360331047E-5-1.4175138510089152E-4i
0.01653061224489796       0                        -0.009387755102040816    5.745672455215787E-5-1.3921214763386338E-4i
0.01714285714285714       0                        -0.009387755102040816    5.628942553135012E-5-1.3638380790008137E-4i
0.017755102040816324      0                        -0.009387755102040816    5.500280654088729E-5-1.3326636589954557E-4i
0.01836734693877551       0                        -0.009387755102040816    5.384826143878429E-5-1.30468904112842E-4i
0.018979591836734692      0                        -0.009387755102040816    5.264090990190722E-5-1.275434946937858E-4i
0.019591836734693877      0                        -0.009387755102040816    5.136255871573882E-5-1.2444605888900235E-4i
0.02020408163265306       0                        -0.009387755102040816    5.0217195924514626E-5-1.2167080527146944E-4i
0.020816326530612245      0                        -0.009387755102040816    4.8670859944014265E-5-1.1792405215606735E-4i
0.02142857142857143       0                        -0.009387755102040816    4.754795791721321E-5-1.1520321043002876E-4i
0.022040816326530613      0                        -0.009387755102040816    4.627572388331361E-5-1.1212056055501223E-4i
0.022653061224489793      0                        -0.009387755102040816    4.52474627022005E-5-1.0962901525505943E-4i
0.023265306122448978      0                        -0.009387755102040816    4.418686063560921E-5-1.0705911034107993E-4i
0.02387755102040816       0                        -0.009387755102040816    4.312662872772594E-5-1.0449009879164935E-4i
0.024489795918367346      0                        -0.009387755102040816    4.2220626714779735E-5-1.0229475594195131E-4i
0.02510204081632653       0                        -0.009387755102040816    4.1298821304210754E-5-1.0006112232312979E-4i
0.025714285714285714      0                        -0.009387755102040816    4.036121249601907E-5-9.778919793518493E-5i
0.026326530612244898      0                        -0.009387755102040816    3.9465387915349605E-5-9.561848213092799E-5i
0.02693877551020408       0                        -0.009387755102040816    3.872191760444666E-5-9.381687345387189E-5i
0.027551020408163263      0                        -0.009387755102040816    3.8004637602203535E-5-9.207876378849027E-5i
0.028163265306122447      0                        -0.009387755102040816    3.723933082060769E-5-9.0224352314083E-5i
0.02877551020408163       0                        -0.009387755102040816    3.6670904363903236E-5-8.884676641454008E-5i
0.029387755102040815      0                        -0.009387755102040816    3.609777130092674E-5-8.745777625649624E-5i
0.03                      0                        -0.009387755102040816    3.551993163167821E-5-8.605738183995141E-5i
0                         0                        -0.009183673469387756    -1.531002398529319E-9+3.7088310702866048E-9i
6.122448979591836E-4      0                        -0.009183673469387756    6.371860542020691E-6-1.5438502748930025E-5i
0.0012244897959183673     0                        -0.009183673469387756    1.2668021536049782E-5-3.069359065419814E-5i
0.001836734693877551      0                        -0.009183673469387756    1.8737465673513493E-5-4.539936539644154E-5i
0.0024489795918367346     0                        -0.009183673469387756    2.4518998207319294E-5-5.940754888990947E-5i
0.003061224489795918      0                        -0.009183673469387756    2.9875612607971842E-5-7.238618207960657E-5i
0.003673469387755102      0                        -0.009183673469387756    3.569039257607904E-5-8.647493065432387E-5i
0.004285714285714285      0                        -0.009183673469387756    4.05759703691294E-5-9.831227006023431E-5i
0.004897959183673469      0                        -0.009183673469387756    4.498656337549372E-5-1.0899877244503947E-4i
0.005510204081632653      0                        -0.009183673469387756    4.9042986987416955E-5-1.188271501579679E-4i
0.006122448979591836      0                        -0.009183673469387756    5.256839231371444E-5-1.2736890072431774E-4i
0.00673469387755102       0                        -0.009183673469387756    5.5685625880597843E-5-1.3492168201540246E-4i
0.007346938775510204      0                        -0.009183673469387756    5.83024050241071E-5-1.412618995052056E-4i
0.007959183673469388      0                        -0.009183673469387756    6.0544210750065784E-5-1.4669358908260785E-4i
0.00857142857142857       0                        -0.009183673469387756    6.226427891121544E-5-1.508611408047699E-4i
0.009183673469387754      0                        -0.009183673469387756    6.366827411819943E-5-1.5426286434992262E-4i
0.009795918367346938      0                        -0.009183673469387756    6.444654746192406E-5-1.5614852073711613E-4i
0.010408163265306122      0                        -0.009183673469387756    6.49515213716272E-5-1.573719656385866E-4i
0.011020408163265306      0                        -0.009183673469387756    6.529056986997159E-5-1.5819342167763679E-4i
0.011632653061224489      0                        -0.009183673469387756    6.530480651587864E-5-1.5822788296374752E-4i
0.012244897959183673      0                        -0.009183673469387756    6.495546862375917E-5-1.5738141419617492E-4i
0.012857142857142857      0                        -0.009183673469387756    6.465020114223649E-5-1.5664174150728735E-4i
0.01346938775510204       0                        -0.009183673469387756    6.38676584985737E-5-1.5474565617501428E-4i
0.014081632653061223      0                        -0.009183673469387756    6.288227145389487E-5-1.5235810151343303E-4i
0.014693877551020407      0                        -0.009183673469387756    6.233738726149752E-5-1.5103781863692344E-4i
0.015306122448979591      0                        -0.009183673469387756    6.097349902011615E-5-1.4773315408934305E-4i
0.015918367346938776      0                        -0.009183673469387756    5.960229128052294E-5-1.4441074955616587E-4i
0.01653061224489796       0                        -0.009183673469387756    5.85246273052243E-5-1.4179958810318105E-4i
0.01714285714285714       0                        -0.009183673469387756    5.7327643360270544E-5-1.3889932438344247E-4i
0.017755102040816324      0                        -0.009183673469387756    5.601133944566166E-5-1.3570995839694996E-4i
0.01836734693877551       0                        -0.009183673469387756    5.4834956127963604E-5-1.3285958400112766E-4i
0.018979591836734692      0                        -0.009183673469387756    5.360051399208786E-5-1.2986853644308838E-4i
0.019591836734693877      0                        -0.009183673469387756    5.229507220692091E-5-1.2670546249932214E-4i
0.02020408163265306       0                        -0.009183673469387756    5.1012420345555644E-5-1.235975708478404E-4i
0.020816326530612245      0                        -0.009183673469387756    4.945206402308807E-5-1.1981684665561226E-4i
0.02142857142857143       0                        -0.009183673469387756    4.838207325983719E-5-1.17224199788101E-4i
0.022040816326530613      0                        -0.009183673469387756    4.68602183476369E-5-1.1353675383121488E-4i
0.022653061224489793      0                        -0.009183673469387756    4.5812037909154664E-5-1.1099694589074218E-4i
0.023265306122448978      0                        -0.009183673469387756    4.473151658519432E-5-1.083787783362429E-4i
0.02387755102040816       0                        -0.009183673469387756    4.366769516455468E-5-1.0580106823202543E-4i
0.024489795918367346      0                        -0.009183673469387756    4.2744904958362454E-5-1.035650490221566E-4i
0.02510204081632653       0                        -0.009183673469387756    4.180631135454757E-5-1.0129073904316454E-4i
0.025714285714285714      0                        -0.009183673469387756    4.083376896105151E-5-9.893416514621453E-5i
0.026326530612244898      0                        -0.009183673469387756    3.986306959131788E-5-9.658204660240881E-5i
0.02693877551020408       0                        -0.009183673469387756    3.909415982180879E-5-9.471880653361475E-5i
0.027551020408163263      0                        -0.009183673469387756    3.836357685693228E-5-9.294846488004964E-5i
0.028163265306122447      0                        -0.009183673469387756    3.7564094935098806E-5-9.101130990104822E-5i