% Model:              FEA.mph
% Version:            COMSOL 5.1.0.145
% Date:               Jun 19 2022, 10:38
% Dimension:          2
% Nodes:              10000
% Expressions:        1
% Description:        Current density, phi component
% Length unit:        m
% r                       z                        mf.Jphi (A/m^2) @ freq=20000
0                         -0.006                   1.356289421973688-13.543087226501317i
3.0303030303030303E-4     -0.006                   -4076.6244689515834-1499.1639077071743i
6.060606060606061E-4      -0.006                   -8115.034890454965-2962.2644491853353i
9.090909090909091E-4      -0.006                   -12113.874975088173-4402.844711660986i
0.0012121212121212121     -0.006                   -16060.6510459165-5805.860186524366i
0.0015151515151515152     -0.006                   -19906.13639293338-7139.05944675448i
0.0018181818181818182     -0.006                   -23645.73851605743-8401.681617295351i
0.002121212121212121      -0.006                   -27275.250831960337-9589.033298940767i
0.0024242424242424242     -0.006                   -30752.927933403113-10673.922958849666i
0.0027272727272727275     -0.006                   -34068.090217274716-11652.742910157955i
0.0030303030303030303     -0.006                   -37220.349341648114-12524.567981350361i
0.003333333333333333      -0.006                   -40184.58612241851-13270.52065835471i
0.0036363636363636364     -0.006                   -42946.28545163852-13889.53791412221i
0.00393939393939394       -0.006                   -45505.44732930818-14381.619748652847i
0.004242424242424242      -0.006                   -47853.26612821639-14738.559164723876i
0.004545454545454545      -0.006                   -49978.36357792724-14963.831545825009i
0.0048484848484848485     -0.006                   -51880.943030705195-15059.190878547786i
0.005151515151515152      -0.006                   -53558.973776033876-15021.614496387523i
0.005454545454545455      -0.006                   -55012.81478670011-14861.74846984734i
0.005757575757575757      -0.006                   -56244.61643081591-14586.164155599641i
0.006060606060606061      -0.006                   -57253.81952407079-14193.541960137005i
0.006363636363636364      -0.006                   -58049.02519713227-13695.833757906295i
0.006666666666666666      -0.006                   -58639.322642975414-13108.925026250057i
0.0069696969696969695     -0.006                   -59024.711861600204-12432.815765168278i
0.007272727272727273      -0.006                   -59214.85979137464-11675.030082512476i
0.007575757575757576      -0.006                   -59229.53993476331-10860.303494868493i
0.00787878787878788       -0.006                   -59069.17115258567-9989.453864592517i
0.008181818181818182      -0.006                   -58739.35032669866-9065.8969718279i
0.008484848484848484      -0.006                   -58267.483734521265-8115.159178475324i
0.008787878787878787      -0.006                   -57657.158097658335-7141.629536592974i
0.00909090909090909       -0.006                   -56910.22582318946-6146.016899539657i
0.009393939393939394      -0.006                   -56054.02915937239-5147.870968371254i
0.009696969696969697      -0.006                   -55097.63863879534-4155.555593664097i
0.01                      -0.006                   -54041.0542614583-3169.0707754181753i
0.010303030303030303      -0.006                   -52904.01757000093-2198.643679392291i
0.010606060606060607      -0.006                   -51702.81081483586-1255.3190867848639i
0.01090909090909091       -0.006                   -50437.433995963074-339.09699759589023i
0.011212121212121211      -0.006                   -49117.413004820395+546.4025701330113i
0.011515151515151515      -0.006                   -47763.831011041206+1391.9704806977684i
0.011818181818181818      -0.006                   -46377.28664316524+2197.167984970977i
0.012121212121212121      -0.006                   -44960.947596338934+2961.203107466902i
0.012424242424242424      -0.006                   -43534.030457905494+3679.3512221233964i
0.012727272727272728      -0.006                   -42099.34057361811+4350.94516146076i
0.013030303030303031      -0.006                   -40657.26703133018+4975.9229772802455i
0.013333333333333332      -0.006                   -39221.345890737764+5553.478107798715i
0.013636363636363636      -0.006                   -37796.60356223474+6083.913651737865i
0.013939393939393939      -0.006                   -36383.04004582109+6567.229609097698i
0.014242424242424242      -0.006                   -34987.02723290361+7004.183554809867i
0.014545454545454545      -0.006                   -33615.72702899347+7397.122618526695i
0.014848484848484849      -0.006                   -32268.873219468576+7746.181329943172i
0.015151515151515152      -0.006                   -30948.680515250726+8052.017900897904i
0.015454545454545455      -0.006                   -29661.462780333753+8318.746887422263i
0.01575757575757576       -0.006                   -28407.109925127315+8547.08159635476i
0.01606060606060606       -0.006                   -27186.099917469757+8737.178216096796i
0.016363636363636365      -0.006                   -26002.61386573675+8893.37932719986i
0.016666666666666666      -0.006                   -24856.571368481775+9017.64285295651i
0.016969696969696968      -0.006                   -23747.97242570483+9109.968793366752i
0.017272727272727273      -0.006                   -22678.885559961665+9173.290415591015i
0.017575757575757574      -0.006                   -21649.063264790824+9211.208659509526i
0.01787878787878788       -0.006                   -20658.35945068195+9223.72435857349i
0.01818181818181818       -0.006                   -19707.43378327504+9212.153862487296i
0.018484848484848486      -0.006                   -18795.768408434156+9180.881579159779i
0.018787878787878787      -0.006                   -17922.849057668664+9130.235739907279i
0.019090909090909092      -0.006                   -17088.86581908135+9060.58456213782i
0.019393939393939394      -0.006                   -16292.933068776018+8975.791260063803i
0.019696969696969695      -0.006                   -15533.993919930876+8876.81249078534i
0.02                      -0.006                   -14812.048372545909+8763.648254302427i
0.020303030303030302      -0.006                   -14126.4763297915+8638.832080502612i
0.020606060606060607      -0.006                   -13475.32354791307+8504.023231571293i
0.02090909090909091       -0.006                   -12858.590026910673+8359.2217075085i
0.021212121212121213      -0.006                   -12275.862917067834+8205.499783355115i
0.021515151515151515      -0.006                   -11724.79922787916+8044.927836859252i
0.02181818181818182       -0.006                   -11205.12079412051+7877.5198109294415i
0.02212121212121212       -0.006                   -10716.713390538369+7703.59709706293i
0.022424242424242423      -0.006                   -10257.288818764611+7524.83111074694i
0.022727272727272728      -0.006                   -9826.06223707615+7341.387216052175i
0.02303030303030303       -0.006                   -9423.038672027138+7153.303220967954i
0.023333333333333334      -0.006                   -9046.491933701354+6961.552716486225i
0.023636363636363636      -0.006                   -8694.931544825457+6766.344534675407i
0.02393939393939394       -0.006                   -8368.357505399437+6567.678675535493i
0.024242424242424242      -0.006                   -8065.885073530605+6365.878025589124i
0.024545454545454544      -0.006                   -7785.341606578645+6161.038310021325i
0.02484848484848485       -0.006                   -7526.633156787865+5953.116350543328i
0.02515151515151515       -0.006                   -7289.4284441019745+5742.155461270625i
0.025454545454545455      -0.006                   -7071.404163942481+5527.880202100005i
0.025757575757575757      -0.006                   -6872.117161506176+5310.15544554823i
0.026060606060606062      -0.006                   -6691.5287509062255+5088.976728876514i
0.026363636363636363      -0.006                   -6527.677320730826+4863.735446684189i
0.026666666666666665      -0.006                   -6379.487245359787+4634.052638470223i
0.02696969696969697       -0.006                   -6246.958524793115+4399.928304234621i
0.02727272727272727       -0.006                   -6128.91014987722+4160.701585685942i
0.027575757575757576      -0.006                   -6023.395176513381+3915.5671961818534i
0.027878787878787878      -0.006                   -5930.387105308627+3664.5252635669576i
0.028181818181818183      -0.006                   -5849.352162250659+3407.1098422802934i
0.028484848484848484      -0.006                   -5777.832469622895+3142.0393880409083i
0.02878787878787879       -0.006                   -5715.52492617004+2869.2653163557916i
0.02909090909090909       -0.006                   -5662.264112511481+2588.489590871725i
0.029393939393939392      -0.006                   -5615.518930933+2298.2583056012127i
0.029696969696969697      -0.006                   -5574.431223852374+1998.69798106462i
0.03                      -0.006                   -5539.0009912696105+1689.8086172619644i
0                         -0.00593939393939394     3.7970028085927696-2.4855076857543907i
3.0303030303030303E-4     -0.00593939393939394     -4137.394247969926-1523.519486016349i
6.060606060606061E-4      -0.00593939393939394     -8241.12109964437-3028.72628009042i
9.090909090909091E-4      -0.00593939393939394     -12305.277614448634-4511.4127951619785i
0.0012121212121212121     -0.00593939393939394     -16308.0734378329-5930.843868765461i
0.0015151515151515152     -0.00593939393939394     -20214.261257275703-7303.257905447333i
0.0018181818181818182     -0.00593939393939394     -24014.565852825683-8605.094852439965i
0.002121212121212121      -0.00593939393939394     -27694.345098346163-9803.93193301315i
0.0024242424242424242     -0.00593939393939394     -31222.79903576329-10918.222317737667i
0.0027272727272727275     -0.00593939393939394     -34588.738155609266-11926.442993861589i
0.0030303030303030303     -0.00593939393939394     -37786.45504786769-12811.220811324398i
0.003333333333333333      -0.00593939393939394     -40788.177995258186-13573.265516606021i
0.0036363636363636364     -0.00593939393939394     -43587.77068078347-14210.032392268069i
0.00393939393939394       -0.00593939393939394     -46184.825914758374-14719.863846693266i
0.004242424242424242      -0.00593939393939394     -48555.87698748723-15073.522358922135i
0.004545454545454545      -0.00593939393939394     -50704.298306109114-15303.851158706826i
0.0048484848484848485     -0.00593939393939394     -52630.20162779816-15404.266910113178i
0.005151515151515152      -0.00593939393939394     -54323.015316042955-15361.228913919516i
0.005454545454545455      -0.00593939393939394     -55785.58950898579-15194.681088069301i
0.005757575757575757      -0.00593939393939394     -57026.12433537822-14912.414974511581i
0.006060606060606061      -0.00593939393939394     -58041.95142691641-14512.246310552622i
0.006363636363636364      -0.00593939393939394     -58832.845778108625-13998.723832440272i
0.006666666666666666      -0.00593939393939394     -59418.8319020825-13396.000824902387i
0.0069696969696969695     -0.00593939393939394     -59800.08668512296-12704.665373175134i
0.007272727272727273      -0.00593939393939394     -59978.36854705066-11930.859897428249i
0.007575757575757576      -0.00593939393939394     -59978.339089305045-11094.672814087893i
0.00787878787878788       -0.00593939393939394     -59803.26070599318-10202.36268811554i
0.008181818181818182      -0.00593939393939394     -59457.154183719475-9264.229970518696i
0.008484848484848484      -0.00593939393939394     -58963.38925086148-8289.978816712955i
0.008787878787878787      -0.00593939393939394     -58331.16527331795-7292.935814377434i
0.00909090909090909       -0.00593939393939394     -57564.06669062542-6283.304693771592i
0.009393939393939394      -0.00593939393939394     -56681.847449361114-5262.508243333672i
0.009696969696969697      -0.00593939393939394     -55699.43435133685-4247.542349356995i
0.01                      -0.00593939393939394     -54618.33174088021-3243.178211510774i
0.010303030303030303      -0.00593939393939394     -53455.15025847948-2257.447973071651i
0.010606060606060607      -0.00593939393939394     -52226.46107169105-1294.312364998708i
0.01090909090909091       -0.00593939393939394     -50933.6018211949-358.2792603442135i
0.011212121212121211      -0.00593939393939394     -49588.98624531241+535.7008782129154i
0.011515151515151515      -0.00593939393939394     -48208.48021944832+1397.248153247604i
0.011818181818181818      -0.00593939393939394     -46795.01181948749+2218.4250219907326i
0.012121212121212121      -0.00593939393939394     -45354.58922463255+2989.114104860119i
0.012424242424242424      -0.00593939393939394     -43902.69723392324+3719.1915302115353i
0.012727272727272728      -0.00593939393939394     -42443.032497359985+4402.714780243832i
0.013030303030303031      -0.00593939393939394     -40977.75724835218+5033.320608642914i
0.013333333333333332      -0.00593939393939394     -39519.72859694484+5618.32310914898i
0.013636363636363636      -0.00593939393939394     -38072.75693689545+6156.942724174898i
0.013939393939393939      -0.00593939393939394     -36636.96408893547+6648.442752621497i
0.014242424242424242      -0.00593939393939394     -35222.44783815474+7085.3716267697255i
0.014545454545454545      -0.00593939393939394     -33832.020903593104+7483.335609041863i
0.014848484848484849      -0.00593939393939394     -32466.04036341674+7837.419239013643i
0.015151515151515152      -0.00593939393939394     -31129.23027552025+8142.232806701926i
0.015454545454545455      -0.00593939393939394     -29826.015897668403+8411.509060080714i
0.01575757575757576       -0.00593939393939394     -28555.66639952706+8642.391035867633i
0.01606060606060606       -0.00593939393939394     -27319.978815482453+8830.607399490253i
0.016363636363636365      -0.00593939393939394     -26123.448575001614+8987.545417825295i
0.016666666666666666      -0.00593939393939394     -24964.3618889988+9112.545850813929i
0.016969696969696968      -0.00593939393939394     -23842.816245762457+9205.190406765932i
0.017272727272727273      -0.00593939393939394     -22763.559750874803+9265.121903907047i
0.017575757575757574      -0.00593939393939394     -21723.350967656064+9302.547472308466i
0.01787878787878788       -0.00593939393939394     -20722.2606654993+9314.57049585535i
0.01818181818181818       -0.00593939393939394     -19762.82325502909+9299.141822883294i
0.018484848484848486      -0.00593939393939394     -18843.08178773976+9266.62518383415i
0.018787878787878787      -0.00593939393939394     -17962.086344525804+9214.734988860011i
0.019090909090909092      -0.00593939393939394     -17121.04859087562+9141.247458250224i
0.019393939393939394      -0.00593939393939394     -16319.00012306191+9054.820877322349i
0.019696969696969695      -0.00593939393939394     -15553.945256708395+8954.208829190025i
0.02                      -0.00593939393939394     -14826.186757393887+8838.377214064065i
0.020303030303030302      -0.00593939393939394     -14136.234770895246+8710.732087111255i
0.020606060606060607      -0.00593939393939394     -13480.59618419606+8574.165578302727i
0.02090909090909091       -0.00593939393939394     -12859.376858372916+8427.606394362721i
0.021212121212121213      -0.00593939393939394     -12273.499426071894+8270.369357796466i
0.021515151515151515      -0.00593939393939394     -11719.290117925992+8108.089125714233i
0.02181818181818182       -0.00593939393939394     -11196.466065210127+7938.972814198055i
0.02212121212121212       -0.00593939393939394     -10705.752121505173+7761.878216763432i
0.022424242424242423      -0.00593939393939394     -10244.274164042949+7581.554991878771i
0.022727272727272728      -0.00593939393939394     -9810.994196665999+7396.553858615318i
0.02303030303030303       -0.00593939393939394     -9406.371313405949+7205.791140169885i
0.023333333333333334      -0.00593939393939394     -9028.70923008873+7012.516336629082i
0.023636363636363636      -0.00593939393939394     -8675.98899516295+6815.940074075085i
0.02393939393939394       -0.00593939393939394     -8348.255109687045+6615.906134191994i
0.024242424242424242      -0.00593939393939394     -8045.632072870237+6411.770884980934i
0.024545454545454544      -0.00593939393939394     -7764.661285755083+6205.735980138054i
0.02484848484848485       -0.00593939393939394     -7505.525515801106+5996.618831384973i
0.02515151515151515       -0.00593939393939394     -7268.631461144746+5783.5747054297335i
0.025454545454545455      -0.00593939393939394     -7050.798115767043+5568.194807507654i
0.025757575757575757      -0.00593939393939394     -6851.70204811253+5349.365412204419i
0.026060606060606062      -0.00593939393939394     -6671.84812948423+5126.277151184908i
0.026363636363636363      -0.00593939393939394     -6508.696404903739+4899.896034093717i
0.026666666666666665      -0.00593939393939394     -6361.206035127611+4669.073390980884i
0.02696969696969697       -0.00593939393939394     -6229.443387553552+4433.719729560068i
0.02727272727272727       -0.00593939393939394     -6112.886812573752+4192.501958746588i
0.027575757575757576      -0.00593939393939394     -6008.501286066287+3945.9565768109073i
0.027878787878787878      -0.00593939393939394     -5916.622661717903+3693.5036517644076i
0.028181818181818183      -0.00593939393939394     -5837.431975300762+3433.6656553905914i
0.028484848484848484      -0.00593939393939394     -5767.398316876588+3166.504421101662i
0.02878787878787879       -0.00593939393939394     -5706.576807627322+2891.6395693670015i
0.02909090909090909       -0.00593939393939394     -5655.383291991817+2607.6728167501656i
0.029393939393939392      -0.00593939393939394     -5610.489833396687+2313.7525169616783i
0.029696969696969697      -0.00593939393939394     -5571.253849299417+2010.503177907132i
0.03                      -0.00593939393939394     -5538.538514966047+1694.8193072498664i
0                         -0.005878787878787879    5.9776302134486485+7.150165192670499i
3.0303030303030303E-4     -0.005878787878787879    -4199.5221547548745-1554.3899074424312i
6.060606060606061E-4      -0.005878787878787879    -8368.565436600375-3101.7029541124098i
9.090909090909091E-4      -0.005878787878787879    -12498.038381575698-4626.495721779876i
0.0012121212121212121     -0.005878787878787879    -16558.488846363758-6070.3634502534005i
0.0015151515151515152     -0.005878787878787879    -20525.379138232507-7481.992263387036i
0.0018181818181818182     -0.005878787878787879    -24386.386206208404-8823.043986831422i
0.002121212121212121      -0.005878787878787879    -28118.191798430937-10041.406612028504i
0.0024242424242424242     -0.005878787878787879    -31697.42257182243-11185.097721568642i
0.0027272727272727275     -0.005878787878787879    -35114.13852764275-12222.719122508184i
0.0030303030303030303     -0.005878787878787879    -38359.33814957132-13130.875041480598i
0.003333333333333333      -0.005878787878787879    -41397.7643213674-13904.654698142927i
0.0036363636363636364     -0.005878787878787879    -44235.25036319794-14559.171193699529i
0.00393939393939394       -0.005878787878787879    -46869.60416877415-15084.773622019931i
0.004242424242424242      -0.005878787878787879    -49265.30010453079-15441.142631284878i
0.004545454545454545      -0.005878787878787879    -51437.045292063725-15676.527849753124i
0.0048484848484848485     -0.005878787878787879    -53386.27248266384-15782.000019843037i
0.005151515151515152      -0.005878787878787879    -55094.20744867165-15735.369652186439i
0.005454545454545455      -0.005878787878787879    -56565.5148238911-15562.14002702619i
0.005757575757575757      -0.005878787878787879    -57814.78283256015-15273.192114158448i
0.006060606060606061      -0.005878787878787879    -58836.91225964783-14865.042928188483i
0.006363636363636364      -0.005878787878787879    -59623.71998289648-14336.027939902206i
0.006666666666666666      -0.005878787878787879    -60205.39478500106-13717.490656482676i
0.0069696969696969695     -0.005878787878787879    -60582.50184562289-13011.946513031407i
0.007272727272727273      -0.005878787878787879    -60748.53549336905-12219.419853359179i
0.007575757575757576      -0.005878787878787879    -60733.79643448918-11361.772274322442i
0.00787878787878788       -0.005878787878787879    -60544.00845004306-10448.001652653713i
0.008181818181818182      -0.005878787878787879    -60181.07254605568-9492.637588302632i
0.008484848484848484      -0.005878787878787879    -59665.40927251712-8494.87307404372i
0.008787878787878787      -0.005878787878787879    -59011.286954293035-7474.316711255053i
0.00909090909090909       -0.005878787878787879    -58223.44940951818-6447.554619633066i
0.009393939393939394      -0.005878787878787879    -57315.207590806625-5404.107649925622i
0.009696969696969697      -0.005878787878787879    -56306.77191533512-4366.491236679414i
0.01                      -0.005878787878787879    -55200.78563923063-3342.809602061416i
0.010303030303030303      -0.005878787878787879    -54011.303137859286-2340.017536603897i
0.010606060606060607      -0.005878787878787879    -52755.13151944743-1357.0709130654243i
0.01090909090909091       -0.005878787878787879    -51434.78983732791-401.2267929454107i
0.011212121212121211      -0.005878787878787879    -50065.14617131068+504.2814120413372i
0.011515151515151515      -0.005878787878787879    -48657.7161133617+1381.808051545954i
0.011818181818181818      -0.005878787878787879    -47217.323681316004+2218.964284759005i
0.012121212121212121      -0.005878787878787879    -45752.477388778476+2999.086103969939i
0.012424242424242424      -0.005878787878787879    -44275.610545793264+3741.0928400162907i
0.012727272727272728      -0.005878787878787879    -42790.97095695414+4436.545400743507i
0.013030303030303031      -0.005878787878787879    -41301.99901400412+5076.871101999067i
0.013333333333333332      -0.005878787878787879    -39822.096460573746+5667.696488108636i
0.013636363636363636      -0.005878787878787879    -38352.89546897803+6214.500174221317i
0.013939393939393939      -0.005878787878787879    -36895.2075151213+6713.0324869611395i
0.014242424242424242      -0.005878787878787879    -35461.64849688075+7153.2463558866575i
0.014545454545454545      -0.005878787878787879    -34052.09483166763+7556.235256714104i
0.014848484848484849      -0.005878787878787879    -32666.987560839756+7915.343805241187i
0.015151515151515152      -0.005878787878787879    -31313.388637364736+8221.006237994254i
0.015454545454545455      -0.005878787878787879    -29994.177616577985+8492.829758227459i
0.01575757575757576       -0.005878787878787879    -28707.831475501735+8726.2590008688i
0.01606060606060606       -0.005878787878787879    -27457.25057206338+8914.967162181298i
0.016363636363636365      -0.005878787878787879    -26247.73576201363+9071.885394889505i
0.016666666666666666      -0.005878787878787879    -25075.604887263016+9197.622735110122i
0.016969696969696968      -0.005878787878787879    -23941.475874388158+9289.664123657632i
0.017272727272727273      -0.005878787878787879    -22851.532761036444+9348.516075557693i
0.017575757575757574      -0.005878787878787879    -21800.937489769833+9385.448968442026i
0.01787878787878788       -0.005878787878787879    -20789.460699565192+9396.979316471825i
0.01818181818181818       -0.005878787878787879    -19821.35248595136+9378.88255167231i
0.018484848484848486      -0.005878787878787879    -18893.534926213564+9345.121556901531i
0.018787878787878787      -0.005878787878787879    -18004.463390551173+9291.987006205765i
0.019090909090909092      -0.005878787878787879    -17156.202958558453+9215.679245697685i
0.019393939393939394      -0.005878787878787879    -16348.038773236363+9127.619385915947i
0.019696969696969695      -0.005878787878787879    -15576.868189374452+9025.374058929758i
0.02                      -0.005878787878787879    -14843.312442901784+8907.310861430886i
0.020303030303030302      -0.005878787878787879    -14148.78621127559+8777.264997686796i
0.020606060606060607      -0.005878787878787879    -13488.661819755664+8638.94082900106i
0.02090909090909091       -0.005878787878787879    -12862.956689111754+8490.623985183836i
0.021212121212121213      -0.005878787878787879    -12273.740532600981+8330.602984722744i
0.021515151515151515      -0.005878787878787879    -11716.385605497859+8166.614467054144i
0.02181818181818182       -0.005878787878787879    -11190.415933824763+7995.789869951596i
0.02212121212121212       -0.005878787878787879    -10697.198080560045+7816.138917910229i
0.022424242424242423      -0.005878787878787879    -10233.66673740934+7634.258454456887i
0.022727272727272728      -0.005878787878787879    -9798.333384343909+7447.700082624755i
0.02303030303030303       -0.005878787878787879    -9391.857703941732+7255.145714203218i
0.023333333333333334      -0.005878787878787879    -9013.128762390745+7059.975137019681i
0.023636363636363636      -0.005878787878787879    -8659.248681415078+6862.030793722507i
0.02393939393939394       -0.005878787878787879    -8330.45418508297+6660.421606096522i
0.024242424242424242      -0.005878787878787879    -8027.3693377574955+6454.5890377650785i
0.024545454545454544      -0.005878787878787879    -7745.971230479148+6247.358943647116i
0.02484848484848485       -0.005878787878787879    -7486.408140361968+6037.046605618947i
0.02515151515151515       -0.005878787878787879    -7249.603941970918+5822.278501858973i
0.025454545454545455      -0.005878787878787879    -7031.961531375004+5605.793965185429i
0.025757575757575757      -0.005878787878787879    -6833.056398502284+5385.859931130741i
0.026060606060606062      -0.005878787878787879    -6653.629269372903+5161.321066208148i
0.026363636363636363      -0.005878787878787879    -6491.25620391886+4933.644321136671i
0.026666666666666665      -0.005878787878787879    -6344.465539737643+4701.681843124978i
0.02696969696969697       -0.005878787878787879    -6213.604716138606+4464.911361661121i
0.02727272727272727       -0.005878787878787879    -6098.162785205116+4222.151041736913i
0.027575757575757576      -0.005878787878787879    -5994.906705554025+3974.194667369632i
0.027878787878787878      -0.005878787878787879    -5904.157528062016+3720.3307498915474i
0.028181818181818183      -0.005878787878787879    -5826.553256864393+3458.309354222508i
0.028484848484848484      -0.005878787878787879    -5758.005632643811+3189.057339884037i
0.02878787878787879       -0.005878787878787879    -5698.67015759813+2912.101708099826i
0.02909090909090909       -0.005878787878787879    -5649.292327079134+2625.1938060321854i
0.029393939393939392      -0.005878787878787879    -5606.250591467356+2327.584491725736i
0.029696969696969697      -0.005878787878787879    -5568.866330353436+2020.6461381532142i
0.03                      -0.005878787878787879    -5538.585985713709+1698.616567576858i
0                         -0.005818181818181819    7.898171636541435+15.363931408773848i
3.0303030303030303E-4     -0.005818181818181819    -4263.008189306425-1591.775171985422i
6.060606060606061E-4      -0.005818181818181819    -8497.367901322983-3181.194471251308i
9.090909090909091E-4      -0.005818181818181819    -12691.978090517909-4747.111646780276i
0.0012121212121212121     -0.005818181818181819    -16811.897271509086-6224.418930988191i
0.0015151515151515152     -0.005818181818181819    -20839.490035803763-7675.262520573583i
0.0018181818181818182     -0.005818181818181819    -24761.199576205585-9055.529020469732i
0.002121212121212121      -0.005818181818181819    -28546.790932214644-10301.45733598682i
0.0024242424242424242     -0.005818181818181819    -32176.7985415805-11474.54917034259i
0.0027272727272727275     -0.005818181818181819    -35644.29133337518-12541.571296097747i
0.0030303030303030303     -0.005818181818181819    -38936.8381208391-13475.512594675507i
0.003333333333333333      -0.005818181818181819    -42013.34510074615-14264.688202965417i
0.0036363636363636364     -0.005818181818181819    -44888.72449888195-14936.954318416565i
0.00393939393939394       -0.005818181818181819    -47559.2059919432-15476.473594471636i
0.004242424242424242      -0.005818181818181819    -49981.53547934713-15841.419981812109i
0.004545454545454545      -0.005818181818181819    -52176.604535791135-16081.861618963918i
0.0048484848484848485     -0.005818181818181819    -54149.15559530226-16192.39020773738i
0.005151515151515152      -0.005818181818181819    -55872.55017392-16144.036711188299i
0.005454545454545455      -0.005818181818181819    -57352.59073141606-15964.125286718023i
0.005757575757575757      -0.005818181818181819    -58610.591922361695-15668.495574540246i
0.006060606060606061      -0.005818181818181819    -59638.08741978631-15251.543028786213i
0.006363636363636364      -0.005818181818181819    -60421.64781149587-14707.746080292118i
0.006666666666666666      -0.005818181818181819    -60999.01129173114-14073.394520990929i
0.0069696969696969695     -0.005818181818181819    -61371.12440726951-13352.520599235837i
0.007272727272727273      -0.005818181818181819    -61525.36063032985-12540.709950305267i
0.007575757575757576      -0.005818181818181819    -61495.911970315734-11661.601875572143i
0.00787878787878788       -0.005818181818181819    -61291.41438473531-10726.37075820703i
0.008181818181818182      -0.005818181818181819    -60911.105413707315-9751.119825179698i
0.008484848484848484      -0.005818181818181819    -60373.543799488165-8729.841950467624i
0.008787878787878787      -0.005818181818181819    -59697.52314058348-7685.772227225791i
0.00909090909090909       -0.005818181818181819    -58887.78924171642-6636.881864490249i