% Model:              FEA_current_excit.mph
% Version:            COMSOL 6.0.0.318
% Date:               Jul 31 2022, 17:05
% Table:              Table 1 - Point Evaluation 1
% Switch 1 index         Time (s)                 Magnetic flux density, x component (T), Point: 17Magnetic flux density, y component (T), Point: 17Magnetic flux density, z component (T), Point: 17
1                        0                        0                        0                        0
1                        1.282051282051282E-5     -8.07357114525098E-6     3.3152995341671557E-6    8.109101262748544E-4
1                        2.564102564102564E-5     -7.705919418922876E-6    6.429701755984859E-6     0.0016462555974121247
1                        3.8461538461538456E-5    -7.242365960634183E-6    9.37741644291082E-6      0.002440905708920786
1                        5.128205128205128E-5     -6.714995195626582E-6    1.2080136510154754E-5    0.003172149326855544
1                        6.41025641025641E-5      -6.068402406399522E-6    1.4471779737074196E-5    0.003821628793300177
1                        7.692307692307691E-5     -5.268310694775402E-6    1.6488403690998095E-5    0.004372086906592156
1                        8.974358974358974E-5     -4.333260193538595E-6    1.807799433141529E-5     0.004809314592847945
1                        1.0256410256410256E-4    -3.2861643944877815E-6   1.9199364029701603E-5    0.0051219855125945995
1                        1.1538461538461538E-4    -2.1540827049457646E-6   1.982347958224692E-5     0.005301999975215495
1                        1.282051282051282E-4     -9.662538290090483E-7    1.9934156693273593E-5    0.005344695452732795
1                        1.4102564102564101E-4    2.4664141783725045E-7    1.9528556962944254E-5    0.005248966903304497
1                        1.5384615384615382E-4    1.4532366719482977E-6    1.8617267645752307E-5    0.0050172930718636296
1                        1.6666666666666666E-4    2.622159839022027E-6     1.722381166847177E-5     0.004655670777991518
1                        1.7948717948717947E-4    3.7227917970251462E-6    1.538385543201773E-5     0.004173466700378191
1                        1.923076923076923E-4     4.727224363158209E-6     1.3145697521415974E-5    0.003583186644882178
1                        2.0512820512820512E-4    5.609559695884524E-6     1.056751197666984E-5     0.002900095970411717
1                        2.1794871794871793E-4    6.346545541449466E-6     7.715416230638994E-6     0.0021418873128555833
1                        2.3076923076923076E-4    6.919235184588431E-6     4.6633120869304275E-6    0.0013281981807836262
1                        2.4358974358974357E-4    7.312096586123349E-6     1.4902424840896602E-6    4.8012809200438937E-4
1                        2.564102564102564E-4     7.5157734778509305E-6    -1.7212423419402139E-6   -3.8038010878316E-4
1                        2.692307692307692E-4     7.5250978276642255E-6    -4.887949017246621E-6    -0.0012310414962810323
1                        2.8205128205128203E-4    7.339326948424742E-6     -7.928197232378083E-6    -0.0020498197206711317
1                        2.9487179487179484E-4    6.963639492381609E-6     -1.076311142851015E-5    -0.002815506152059275
1                        3.0769230769230765E-4    6.407490455145264E-6     -1.3319268504238194E-5   -0.003508274083327496
1                        3.205128205128205E-4     5.685449275514296E-6     -1.5530466340884815E-5   -0.0041101797437801115
1                        3.333333333333333E-4     4.816112764221908E-6     -1.733943152844214E-5    -0.004605633876298673
1                        3.4615384615384613E-4    3.822024315142042E-6     -1.8699309070094206E-5   -0.004981804096960572
1                        3.5897435897435894E-4    2.7289502673506845E-6    -1.957488561260924E-5    -0.005228947883336169
1                        3.7179487179487175E-4    1.5652261223099403E-6    -1.9943506418638753E-5   -0.005340666137022723
1                        3.846153846153846E-4     3.610222109225345E-7     -1.9795605315231695E-5   -0.0053140663633865215
1                        3.974358974358974E-4     -8.525518381020974E-7    -1.91349110468019E-5     -0.0051498298415007535
1                        4.1025641025641023E-4    -2.044506072364348E-6    -1.7978554579287254E-5   -0.004852201335496937
1                        4.2307692307692304E-4    -3.183099500327705E-6    -1.6356966388505254E-5   -0.004428932006854809
1                        4.3589743589743585E-4    -4.238756843146868E-6    -1.4311636032895311E-5   -0.003890958984283623
1                        4.487179487179487E-4     -5.185021952568118E-6    -1.1895319154350235E-5   -0.0032521890636136547
1                        4.6153846153846153E-4    -5.9972757013318565E-6   -9.170958060863696E-6    -0.0025291870639638776
1                        4.7435897435897434E-4    -6.654300207522216E-6    -6.209260001264212E-6    -0.0017406879454136088
1                        4.8717948717948715E-4    -7.138708195468984E-6    -3.086802250099474E-6    -9.071125406490322E-4
1                        5.0E-4                   -7.43815952614724E-6     1.1571992951889895E-7    -5.003918871380026E-5
2                        0                        0                        0                        0
2                        1.282051282051282E-5     -1.8162074143519615E-7   3.200688894518928E-6     8.579814126174912E-4
2                        2.564102564102564E-5     -3.5953399631405804E-7   6.317553702886187E-6     0.001693731370699973
2                        3.8461538461538456E-5    -5.279799278601985E-7    9.272186057587977E-6     0.0024859367274126026
2                        5.128205128205128E-5     -6.824836162720223E-7    1.1986101513691926E-5    0.0032135466600596804
2                        6.41025641025641E-5      -8.193358091950694E-7    1.4389549238967551E-5    0.003857924618593733
2                        7.692307692307691E-5     -9.349622976707599E-7    1.642030222279133E-5     0.004402381535094634
2                        8.974358974358974E-5     -1.0263768224504145E-6   1.802578643783991E-5     0.004832821116812197
2                        1.0256410256410256E-4    -1.0912080236898878E-6   1.9164417442698082E-5    0.00513809398967022
2                        1.1538461538461538E-4    -1.1277817797185881E-6   1.9806708079334786E-5    0.005310294946553568
2                        1.282051282051282E-4     -1.1351539752279609E-6   1.993597745260996E-5     0.005344956900261853
2                        1.4102564102564101E-4    -1.1131163246746794E-6   1.954885027569707E-5     0.005241174875541734
2                        1.5384615384615382E-4    -1.0622203153000528E-6   1.8655593869203037E-5    0.0050016739252414155
2                        1.6666666666666666E-4    -9.838344393910983E-7    1.727916143871683E-5     0.004632634423196702
2                        1.7948717948717947E-4    -8.799978099960001E-7    1.545508409487218E-5     0.00414359589634415
2                        1.923076923076923E-4     -7.533938817336747E-7    1.3230643470357258E-5    0.0035472297509453444
2                        2.0512820512820512E-4    -6.072249300719052E-7    1.0663659931543685E-5    0.0028590055198936463
2                        2.1794871794871793E-4    -4.4529565156420054E-7   7.820574456668438E-6     0.0020967435919077774
2                        2.3076923076923076E-4    -2.717898541484078E-7    4.775018641355971E-6     0.0012801842713785682
2                        2.4358974358974357E-4    -9.138481009342557E-8    1.605541451134244E-6     4.3044548288097436E-4
2                        2.564102564102564E-4     9.141140526094865E-8     -1.60547725831954E-6     -4.3043819230589343E-4
2                        2.692307692307692E-4     2.7187937694003826E-7    -4.77486244458298E-6     -0.001280169566951958
2                        2.8205128205128203E-4    4.4530058088514147E-7    -7.820583684645765E-6    -0.0020967453638860985
2                        2.9487179487179484E-4    6.071878220673451E-7     -1.0663745941866248E-5   -0.002859014113766119
2                        3.0769230769230765E-4    7.533500008527267E-7     -1.32307288559315E-5     -0.0035472374060745797
2                        3.205128205128205E-4     8.800001447046572E-7     -1.545504556893587E-5    -0.004143589556823679
2                        3.333333333333333E-4     9.838604102709607E-7     -1.7279081908385343E-5   -0.004632624750904765
2                        3.4615384615384613E-4    1.0622430843739178E-6    -1.865558598538092E-5    -0.005001675978108507
2                        3.5897435897435894E-4    1.113109196871355E-6     -1.9548922267770647E-5   -0.005241185760328472
2                        3.7179487179487175E-4    1.1351249392013784E-6    -1.9936004105770408E-5   -0.0053449561680353344
2                        3.846153846153846E-4     1.1277491072077166E-6    -1.980678160163976E-5    -0.005310301062770316
2                        3.974358974358974E-4     1.0912614338374426E-6    -1.9164390577506255E-5   -0.005138098853665443
2                        4.1025641025641023E-4    1.02645737681826E-6      -1.8025674589643505E-5   -0.004832816589565101
2                        4.2307692307692304E-4    9.349555913839865E-7     -1.6420288670926764E-5   -0.00440237894331299
2                        4.3589743589743585E-4    8.192690028212307E-7     -1.4389621434268714E-5   -0.0038579262042323413
2                        4.487179487179487E-4     6.823838299943573E-7     -1.1986247203051349E-5   -0.003213554569385727
2                        4.6153846153846153E-4    5.27992177723524E-7      -9.272195172536341E-6    -0.0024859408666184656
2                        4.7435897435897434E-4    3.598075034947606E-7     -6.318146947831064E-6    -0.0016939478552727275
2                        4.8717948717948715E-4    1.8229989379977136E-7    -3.20046805657534E-6     -8.580830175649537E-4
2                        5.0E-4                   9.329432304284352E-12    1.5043785163017813E-11   8.409003253778145E-10
