% Model:              FEA_current_excit.mph
% Version:            COMSOL 6.0.0.318
% Date:               Oct 30 2022, 11:37
% Table:              Table 1 - Point Evaluation 1
% Switch 1 index         Time (s)                 Magnetic flux density, x component (T), Point: 17Magnetic flux density, y component (T), Point: 17Magnetic flux density, z component (T), Point: 17
1                        0                        0                        0                        0
1                        1.0204081632653061E-5    -7.91366395984454E-6     2.6427007595251774E-6    6.382940188780308E-4
1                        2.0408163265306123E-5    -7.682715913162322E-6    5.131644360517146E-6     0.0013090777435568498
1                        3.061224489795918E-5     -7.4998497258818685E-6   7.5349263182210904E-6    0.001960399674000072
1                        4.0816326530612245E-5    -7.164578717552839E-6    9.813729181030182E-6     0.002580307667710085
1                        5.102040816326531E-5     -6.767440996317653E-6    1.193143601745182E-5     0.003157945976589576
1                        6.122448979591836E-5     -6.272460768173028E-6    1.3853207556595715E-5    0.003683790272655834
1                        7.142857142857143E-5     -5.67844218088697E-6     1.5547463676436644E-5    0.00414915249169093
1                        8.163265306122449E-5     -4.993454613386885E-6    1.6986456515954453E-5    0.004546391193087761
1                        9.183673469387755E-5     -4.226650894302631E-6    1.814650889445356E-5     0.004868980450624462
1                        1.0204081632653062E-4    -3.3912527958986427E-6   1.900873105014158E-5     0.005111638429469762
1                        1.1224489795918367E-4    -2.49921249304067E-6     1.9558664827076917E-5    0.0052703457620934925
1                        1.2244897959183673E-4    -1.567332060113572E-6    1.9787612832547365E-5    0.005342530821205849
1                        1.326530612244898E-4     -6.092386443664106E-7    1.9691563968788328E-5    0.005326981305898705
1                        1.4285714285714287E-4    3.5890436661701175E-7    1.9272163948730457E-5    0.005223958113422752
1                        1.530612244897959E-4     1.3220975782076695E-6    1.8536161079021537E-5    0.005035146973891541
1                        1.6326530612244898E-4    2.2617803458078537E-6    1.749613387356299E-5     0.004763691670254655
1                        1.7346938775510205E-4    3.1649971733045765E-6    1.616869434988834E-5     0.004414002605689187
1                        1.836734693877551E-4     4.0161909893137715E-6    1.4575798888999733E-5    0.003991838581010044
1                        1.9387755102040816E-4    4.801016080926342E-6     1.2743685022307479E-5    0.0035041392752445523
1                        2.0408163265306123E-4    5.5153814309949574E-6    1.0701258330301562E-5    0.0029588308415111945
1                        2.1428571428571427E-4    6.12683352041473E-6      8.484765537820385E-6     0.0023651290562003756
1                        2.2448979591836734E-4    6.643811984846897E-6     6.127810573738725E-6     0.0017323620721994685
1                        2.3469387755102041E-4    7.053696116963703E-6     3.6696324107345385E-6    0.0010710728629024714
1                        2.4489795918367346E-4    7.3489905361223605E-6    1.151657025119947E-6     3.923263757160072E-4
1                        2.5510204081632655E-4    7.510080010406262E-6     -1.3826069839208323E-6   -2.9243377175726284E-4
1                        2.653061224489796E-4     7.579374218795014E-6     -3.895975985915128E-6    -9.724607817005153E-4
1                        2.7551020408163264E-4    7.531636247496239E-6     -6.3473204042817326E-6   -0.0016370073462639984
1                        2.8571428571428574E-4    7.3013526140376035E-6    -8.693416218309667E-6    -0.0022749795661104024
1                        2.959183673469388E-4     6.969839183705916E-6     -1.0896026351680978E-5   -0.002875106706733221
1                        3.061224489795918E-4     6.525012486919461E-6     -1.291896659720401E-5    -0.0034278933281528703
1                        3.163265306122449E-4     5.984642332008725E-6     -1.4730621240268771E-5   -0.003924530862338405
1                        3.2653061224489796E-4    5.345989019660028E-6     -1.630049938106279E-5    -0.004356727070806306
1                        3.36734693877551E-4      4.619584211563029E-6     -1.7602732284788707E-5   -0.004717386148371225
1                        3.469387755102041E-4     3.816966888924059E-6     -1.8615922208294678E-5   -0.005000587455078465
1                        3.5714285714285714E-4    2.9516559216188687E-6    -1.9323443042572147E-5   -0.005201679218837104
1                        3.673469387755102E-4     2.0378708952609624E-6    -1.9713671738527415E-5   -0.005317359288619858
1                        3.775510204081633E-4     1.0906316967297862E-6    -1.9780200278484546E-5   -0.005345728891388053
1                        3.877551020408163E-4     1.2542337523416187E-7    -1.9521947451527987E-5   -0.005286321656185828
1                        3.9795918367346937E-4    -8.417333406030607E-7    -1.8943125720542864E-5   -0.00514011210533692
1                        4.0816326530612246E-4    -1.7952282062982966E-6   -1.805328127859272E-5    -0.004909505169423821
1                        4.183673469387755E-4     -2.7190371907220043E-6   -1.6867000304830234E-5   -0.004598279350369213
1                        4.2857142857142855E-4    -3.598472359034967E-6    -1.5403700586373445E-5   -0.0042115535411459005
1                        4.3877551020408165E-4    -4.418470975125933E-6    -1.3687637638471993E-5   -0.003755679349055976
1                        4.489795918367347E-4     -5.166231662262684E-6    -1.1746608586419933E-5   -0.0032381130846586984
1                        4.5918367346938773E-4    -5.829127448534151E-6    -9.612798357942163E-6    -0.0026674136504513083
1                        4.6938775510204083E-4    -6.395856389890971E-6    -7.321267612744223E-6    -0.0020528888899932047
1                        4.7959183673469387E-4    -6.85841522857684E-6     -4.909289067097956E-6    -0.0014046624148890588
1                        4.897959183673469E-4     -7.207792814856309E-6    -2.4168624342531028E-6   -7.333757102619224E-4
1                        5.0E-4                   -7.438846690508985E-6    1.1529063030725479E-7    -5.00434301069985E-5
2                        0                        0                        0                        0
2                        1.0204081632653061E-5    -1.5325276816748857E-7   2.5296327971609525E-6    6.837052347866048E-4
2                        2.0408163265306123E-5    -3.0389947475038857E-7   5.016136866852267E-6     0.001355753989614191
2                        3.061224489795918E-5     -4.499735097941842E-7    7.4272230869025686E-6    0.00200742162866159
2                        4.0816326530612245E-5    -5.883916534600166E-7    9.711992008937959E-6     0.0026249449104105735
2                        5.102040816326531E-5     -7.171494865025611E-7    1.183724401939827E-5     0.0031993569986653214
2                        6.122448979591836E-5     -8.341481415736614E-7    1.3768472631916473E-5    0.003721326037746027
2                        7.142857142857143E-5     -9.374328045056585E-7    1.5473250940303712E-5    0.004182092710527827
2                        8.163265306122449E-5     -1.0253565396678088E-6   1.6924550541330683E-5    0.004574347134021354
2                        9.183673469387755E-5     -1.0963716040066538E-6   1.8096671197428238E-5    0.004891149318960416
2                        1.0204081632653062E-4    -1.1495083200037529E-6   1.897383365730762E-5     0.0051282234714049215
2                        1.1224489795918367E-4    -1.183619687475191E-6    1.95368037038628E-5      0.0052803873371634145
2                        1.2244897959183673E-4    -1.1984420153691042E-6   1.978148712623418E-5     0.005346515100613022
2                        1.326530612244898E-4     -1.193480502368139E-6    1.9699599253723377E-5    0.005324385327805377
2                        1.4285714285714287E-4    -1.1689666310025222E-6   1.9294965757158156E-5    0.005215020914617849
2                        1.530612244897959E-4     -1.125258153559022E-6    1.857355311473098E-5     0.005020037067231477
2                        1.6326530612244898E-4    -1.0630567649880598E-6   1.7546839102458175E-5    0.004742539199639749
2                        1.7346938775510205E-4    -9.834119109654676E-7    1.6232209643664804E-5    0.0043872223929475275
2                        1.836734693877551E-4     -8.876097591370201E-7    1.4650897180232384E-5    0.003959827954344346
2                        1.9387755102040816E-4    -7.772566605820974E-7    1.2829394561788644E-5    0.0034675126069209227
2                        2.0408163265306123E-4    -6.541041807939129E-7    1.0796688686913424E-5    0.0029181170480080945
2                        2.1428571428571427E-4    -5.202679637612676E-7    8.587484586837873E-6     0.002321012992188307
2                        2.2448979591836734E-4    -3.7781735196366685E-7   6.236294067899731E-6     0.0016855390193066416
2                        2.3469387755102041E-4    -2.2920447407886405E-7   3.7832709391376894E-6    0.0010225380578853288
2                        2.4489795918367346E-4    -7.681675069926229E-8    1.2679835010166274E-6    3.4270938094886307E-4
2                        2.5510204081632655E-4    7.682806540471882E-8     -1.2680764760008781E-6   -3.427340767052263E-4
2                        2.653061224489796E-4     2.2920906998077784E-7    -3.7832929253826966E-6   -0.0010225439393176411
2                        2.7551020408163264E-4    3.7782958855644313E-7    -6.236417892939317E-6    -0.001685571790693749
2                        2.8571428571428574E-4    5.202475572390749E-7     -8.587152832551144E-6    -0.0023209258396201947
2                        2.959183673469388E-4     6.541234604642944E-7     -1.0796889902757634E-5   -0.002918171215599154
2                        3.061224489795918E-4     7.772591708566132E-7     -1.282934645645833E-5    -0.0034675014814463737
2                        3.163265306122449E-4     8.876322177767561E-7     -1.4651114791305526E-5   -0.003959887124865362
2                        3.2653061224489796E-4    9.833742751833269E-7     -1.623160053541057E-5    -0.00438705741058137
2                        3.36734693877551E-4      1.0630502512990197E-6    -1.7546317881783323E-5   -0.004742403122471538
2                        3.469387755102041E-4     1.1252584746808923E-6    -1.857352700235231E-5    -0.005020031511441642
2                        3.5714285714285714E-4    1.1689762023500654E-6    -1.929525278599916E-5    -0.0052150980933157644
2                        3.673469387755102E-4     1.1934947279769055E-6    -1.970003377388554E-5    -0.005324501891241033
2                        3.775510204081633E-4     1.1984234013137182E-6    -1.9781240960100515E-5   -0.005346452812085608
2                        3.877551020408163E-4     1.1836868203719076E-6    -1.953805520891739E-5    -0.005280727047830026
2                        3.9795918367346937E-4    1.1495205278928447E-6    -1.8974216154624908E-5   -0.005128337413876955
2                        4.0816326530612246E-4    1.0964848979590403E-6    -1.8098957861849634E-5   -0.004891779662520469
2                        4.183673469387755E-4     1.02545517922351E-6      -1.692676313089552E-5    -0.004574969563828022
2                        4.2857142857142855E-4    9.376031927081683E-7     -1.5477024695957577E-5   -0.004183150807467392
2                        4.3877551020408165E-4    8.343779330263559E-7     -1.3773724121079901E-5   -0.003722808107337267
2                        4.489795918367347E-4     7.172243510511043E-7     -1.1840618110305749E-5   -0.003200358964413151
2                        4.5918367346938773E-4    5.881841011325447E-7     -9.70852052984488E-6     -0.002624003722202661
2                        4.6938775510204083E-4    4.4994263790392995E-7    -7.426853754462332E-6    -0.0020073208843707823
2                        4.7959183673469387E-4    3.0406842382314545E-7    -5.018943399512882E-6    -0.0013565155714682893
2                        4.897959183673469E-4     1.533437351941895E-7     -2.5311048672621946E-6   -6.841042689362316E-4
2                        5.0E-4                   -6.319708951549209E-13   2.830770027670524E-13    -4.663872612119977E-10
