% Model:              FEA_voltage_excit.mph
% Version:            COMSOL 6.0.0.318
% Date:               Oct 30 2022, 11:54
% Table:              Table 1 - Point Evaluation 1
% Time (s)               Magnetic flux density, x component (T), Point: 17Magnetic flux density, y component (T), Point: 17Magnetic flux density, z component (T), Point: 17Coil current (A), Point: 17
0                        0                        0                        0                        0
6.122448979591837E-6     -1.3572935268491935E-5   2.420995335831917E-6     5.05395346664556E-4      0.11020350929448103
1.2244897959183674E-5    -1.9692116317057894E-5   6.257050507541454E-6     0.001504847434781271     0.30230873362319255
1.836734693877551E-5     -1.8619488781630353E-5   9.738029828669534E-6     0.002449677698782961     0.4788648772566971
2.448979591836735E-5     -1.706282176828141E-5    1.2985950364167166E-5    0.0033370934414079572    0.6437984654162706
3.061224489795918E-5     -1.586197828861507E-5    1.6028235040790267E-5    0.004169613721207511     0.7982977777774849
3.673469387755102E-5     -1.493197878799981E-5    1.888418109491519E-5     0.004951313443950148     0.9433243706363059
4.285714285714286E-5     -1.418914220400708E-5    2.1564669037826352E-5    0.005684949926703214     1.079429940313124
4.89795918367347E-5      -1.3520553626800333E-5   2.407915932086818E-5     0.006373305113762688     1.2071086348472437
5.510204081632653E-5     -1.290401989439115E-5    2.643844679829329E-5     0.007019261031840986     1.3269081943717302
6.122448979591836E-5     -1.2331316266128469E-5   2.8651841228618236E-5    0.007625312051110588     1.4393003108014388
6.734693877551021E-5     -1.1799101047417048E-5   3.0727192315376995E-5    0.008193583836911069     1.5446830148790687
7.346938775510205E-5     -1.1301886752813858E-5   3.267371849355343E-5     0.00872658443775805      1.6435241821202526
7.959183673469388E-5     -1.0835872046140144E-5   3.450002994284056E-5     0.009226667092280158     1.736261011541773
8.571428571428573E-5     -1.0398754601328281E-5   3.621298087369284E-5     0.009695708244646264     1.8232415752987483
9.183673469387756E-5     -9.98853265253965E-6     3.781978392447479E-5     0.010135683162038266     1.90483213412896
9.79591836734694E-5      -9.603462442213879E-6    3.932740201321784E-5     0.01054849880409869      1.9813862601996926
1.0408163265306123E-4    -9.242105807586597E-6    4.0741736687034205E-5    0.010935771371692474     2.053203624748637
1.1020408163265306E-4    -8.903055192046696E-6    4.206852120442105E-5     0.011299070870008952     2.1205753503484153
1.1632653061224491E-4    -8.585247860745219E-6    4.331203551300368E-5     0.011639569305318703     2.1837187669242093
1.2244897959183673E-4    -8.28723569046717E-6     4.4478046037204495E-5    0.011958845682079507     2.24292668235396
1.2857142857142858E-4    -8.007758232220378E-6    4.5571528955080936E-5    0.012258262582495358     2.2984517756615657
1.3469387755102042E-4    -7.74558185941483E-6     4.659732349001517E-5     0.012539145084229788     2.3505397737807345
1.4081632653061224E-4    -7.499621396056909E-6    4.7559674487616566E-5    0.01280265551858858      2.399406224466917
1.469387755102041E-4     -7.268856134836786E-6    4.8462572183997765E-5    0.013049886482930555     2.4452537438252953
1.5306122448979594E-4    -7.052350794516101E-6    4.9309674262609184E-5    0.013281839514833844     2.488268061217077
1.5918367346938776E-4    -6.849223835829806E-6    5.010443013373563E-5     0.013499459135642523     2.5286243324836484
1.653061224489796E-4     -6.658651937322302E-6    5.0850061980472407E-5    0.01370362764660649      2.5664861750929693
1.7142857142857145E-4    -6.4798595330745915E-6   5.154960482816789E-5     0.013895176092239593     2.602007701289429
1.7755102040816327E-4    -6.31211943347063E-6     5.220590421688598E-5     0.01407488363366787      2.635333401858445
1.8367346938775512E-4    -6.154748372744199E-6    5.282163379463423E-5     0.014243482372389368     2.6665990406639213
1.8979591836734694E-4    -6.007105484416857E-6    5.339930105489944E-5     0.014401658910918262     2.695931944085952
1.959183673469388E-4     -5.868589239123034E-6    5.394125937337008E-5     0.01455005764490005      2.7234516115028025
2.0204081632653063E-4    -5.738635461787525E-6    5.4449716128606387E-5    0.014689282996643491     2.749270129449358
2.0816326530612245E-4    -5.616714851057281E-6    5.4926742387335E-5       0.014819902068396564     2.773492663671157
2.142857142857143E-4     -5.502330834613041E-6    5.537428101847127E-5     0.014942446855531918     2.796217869570867
2.2040816326530612E-4    -5.395017502172422E-6    5.57941548520816E-5      0.015057416481392768     2.8175383066284767
2.2653061224489797E-4    -5.29433778802406E-6     5.618807398075859E-5     0.015165279202839643     2.837540810301117
2.3265306122448982E-4    -5.199881653103689E-6    5.655764280167583E-5     0.015266474337532103     2.8563068494431145
2.3877551020408164E-4    -5.111264376256962E-6    5.690436653589721E-5     0.015361414043664414     2.8739128563616485
2.4489795918367346E-4    -5.02812501157249E-6     5.722965737067132E-5     0.015450485004037156     2.890430539099469
2.510204081632653E-4     -4.950124944043873E-6    5.753484019044579E-5     0.015534049997701905     2.905927172877399
2.5714285714285715E-4    -4.876946498687509E-6    5.782115797699194E-5     0.015612449379019915     2.9204658743958087
2.63265306122449E-4      -4.808291618730815E-6    5.8089776882190766E-5    0.015686002462851675     2.934105858714781
2.6938775510204085E-4    -4.743880667358497E-6    5.834179097662024E-5     0.01575500882560825      2.9469026805089724
2.755102040816327E-4     -4.683451310943077E-6    5.857822669350694E-5     0.01581974952514031      2.958908460287182
2.816326530612245E-4     -4.6267529202063455E-6   5.880006468131093E-5     0.015880493083436607     2.9701729938616364
2.8775510204081633E-4    -4.573558203892932E-6    5.900819418973713E-5     0.01593748299339503      2.9807414355612734
2.938775510204082E-4     -4.523649077705319E-6    5.920346844452913E-5     0.015990952882855444     2.9906571102886805
3.0000000000000003E-4    -4.476826849588453E-6    5.9386664946875506E-5    0.016041115649020037     2.9999594985508256
3.0000000000000003E-4    -4.476826849588453E-6    5.9386664946875506E-5    0.016041115649020037     2.9999594985508256
3.5510204081632654E-4    -4.166338236417631E-6    6.0601482588160695E-5    0.016373756371935087     3.0616457528663266
4.102040816326531E-4     -3.989590146621967E-6    6.129302864810477E-5     0.01656311522276445      3.0967612318071738
4.6530612244897963E-4    -3.8886174203867625E-6   6.168808994203578E-5     0.016671290537708914     3.1168217040517345
5.204081632653062E-4     -3.825052562824116E-6    6.193680820892808E-5     0.016739394860988334     3.129451247614309
5.755102040816327E-4     -3.792901461782576E-6    6.206258946109104E-5     0.016773835880078525     3.1358381312524783
6.306122448979592E-4     -3.779470670864306E-6    6.211514035741529E-5     0.016788225320284875     3.138506567729779
6.857142857142858E-4     -3.774317080689771E-6    6.213531009994713E-5     0.0167937483283308       3.139530776762686
7.408163265306123E-4     -3.7717470563711214E-6   6.21453577025672E-5      0.016796499408211932     3.140040948501066
7.959183673469388E-4     -3.7699025212564526E-6   6.215257165932902E-5     0.016798474712826326     3.140407257061009
8.510204081632654E-4     -3.7684553656057664E-6   6.215823745009982E-5     0.016800026144076257     3.1406949607773984
9.06122448979592E-4      -3.767513373178973E-6    6.216192344240275E-5     0.016801035435317507     3.1408821278795385
9.612244897959184E-4     -3.7669486445131132E-6   6.21641322990347E-5      0.016801640255606157     3.140994288232836
0.001016326530612245     -3.7666313955966785E-6   6.216537363837673E-5     0.016801980159364977     3.141057321370485
0.0010714285714285717    -3.766462363001085E-6    6.216603536138655E-5     0.016802161356252312     3.1410909232563538
0.0011265306122448982    -3.7663764742963858E-6   6.216637120997026E-5     0.01680225331510182      3.1411079764861936
0.0011816326530612246    -3.7663350162987517E-6   6.216653325993849E-5     0.01680229768672612      3.1411162049434505
0.001236734693877551     -3.7663161650995585E-6   6.21666070726567E-5      0.01680231789901547      3.1411199531918492
0.0012918367346938775    -3.7663081892274345E-6   6.216663830097005E-5     0.01680232644966153      3.1411215388585068
0.0013469387755102044    -3.76630652143555E-6     6.216664480288187E-5     0.01680232822959455      3.141121868937002
0.001402040816326531     -3.766305800989663E-6    6.216664763462182E-5     0.01680232900529027      3.141122012784975
0.0014571428571428574    -3.7663053781568545E-6   6.216664928179582E-5     0.016802329456179085     3.1411220963997524
0.0015122448979591838    -3.76630512063113E-6     6.216665029348643E-5     0.016802329733281884     3.141122147786758
0.0015673469387755103    -3.766304959683168E-6    6.216665092104173E-5     0.016802329905076237     3.1411221796450373
0.0016224489795918368    -3.766304860467724E-6    6.21666513104463E-5      0.016802330011725198     3.141122199422436
0.0016775510204081637    -3.7663047984789616E-6   6.216665155232785E-5     0.01680233007794565      3.14112221170264
0.0017326530612244901    -3.766304760199106E-6    6.216665170247368E-5     0.016802330119064672     3.141122219327914
0.0017877551020408166    -3.7663047363124735E-6   6.216665179573405E-5     0.016802330144597276     3.14112222406279
0.001842857142857143     -3.766304721542888E-6    6.216665185362375E-5     0.01680233016045095      3.1411222270027546
0.0018979591836734695    -3.7663047123355864E-6   6.216665188957666E-5     0.016802330170294637     3.141122228828209
0.001953061224489796     -3.766304706641438E-6    6.216665191189429E-5     0.01680233017640711      3.1411222299617307
0.002008163265306123     -3.76630470309275E-6     6.216665192576302E-5     0.016802330180202708     3.1411222306656024
0.0020632653061224493    -3.7663047008934223E-6   6.21666519343687E-5      0.01680233018255966      3.1411222311026847
0.002118367346938776     -3.7663046995282187E-6   6.21666519397128E-5      0.016802330184023138     3.1411222313740783
0.0021734693877551023    -3.7663046986830018E-6   6.216665194303026E-5     0.016802330184931467     3.141122231542522
0.0022285714285714287    -3.766304698151656E-6    6.216665194509249E-5     0.0168023301854956       3.141122231647136
0.002283673469387755     -3.766304697827933E-6    6.216665194637093E-5     0.016802330185846228     3.141122231712161
0.0023387755102040816    -3.7663046976210003E-6   6.216665194716716E-5     0.016802330186064307     3.141122231752604
0.0023938775510204085    -3.766304697496178E-6    6.216665194765928E-5     0.0168023301861998       3.14112223177773
0.002448979591836735     -3.766304697416173E-6    6.216665194797014E-5     0.016802330186283566     3.1411222317932634
0.0025040816326530615    -3.7663046973714314E-6   6.216665194815482E-5     0.016802330186335142     3.1411222318028242
0.002559183673469388     -3.7663046973426242E-6   6.216665194827786E-5     0.016802330186367644     3.1411222318088576
0.0026142857142857144    -3.766304697319921E-6    6.216665194834688E-5     0.0168023301863876       3.141122231812553
0.002669387755102041     -3.7663046973156585E-6   6.216665194839225E-5     0.01680233018640025      3.141122231814902
0.0027244897959183677    -3.7663046973010506E-6   6.216665194841977E-5     0.016802330186407533     3.141122231816248
0.002779591836734694     -3.766304697301204E-6    6.216665194844147E-5     0.016802330186412525     3.141122231817178
0.0028346938775510207    -3.766304697295608E-6    6.216665194845014E-5     0.016802330186415325     3.1411222318176955
0.002889795918367347     -3.7663046972944115E-6   6.216665194845735E-5     0.016802330186417015     3.141122231818009
0.0029448979591836736    -3.7663046972932155E-6   6.216665194846002E-5     0.01680233018641819      3.1411222318182266
0.003                    -3.7663046972919395E-6   6.216665194846001E-5     0.01680233018641923      3.14112223181842
0.003                    -3.7663046972919395E-6   6.216665194846001E-5     0.01680233018641923      3.14112223181842
0.0030061224489795917    9.977984843547405E-6     5.810163091502796E-5     0.01584880648955001      2.947107925603236
0.003012244897959184     1.3523394275884066E-5    5.453443686124376E-5     0.014911475472057085     2.768374683656947
0.0030183673469387756    1.3672992808953723E-5    5.123713469612111E-5     0.014020970363895378     2.601504616037097
0.0030244897959183672    1.2923064478868396E-5    4.8153493091995476E-5    0.013181286027386685     2.445077328382623
0.0030306122448979594    1.202650151281733E-5     4.526040093243651E-5     0.012391133199769302     2.2982191356143744
0.003036734693877551     1.1178731092828765E-5    4.25431463031873E-5      0.011648065829572226     2.1602575596233087
0.003042857142857143     1.0414357148711256E-5    3.998993932658202E-5     0.010949440316342462     2.0306154812552726
0.003048979591836735     9.727140765545916E-6     3.759040599556389E-5     0.010292661893146742     1.9087731244882316
0.0030551020408163265    9.103961836710632E-6     3.5335080044133966E-5    0.009675251509890462     1.7942521598735361
0.0030612244897959186    8.533278296991694E-6     3.3215189455240964E-5    0.009094862456446529     1.6866079024812348
0.0030673469387755103    8.006397008226008E-6     3.122254439557496E-5     0.00854928144656994      1.5854248716480137
0.003073469387755102     7.517046450361649E-6     2.934947746697107E-5     0.008036424376760692     1.4903138343616777
0.003079591836734694     7.060666026660871E-6     2.758879813597035E-5     0.007554330342661276     1.4009096275291093
0.003085714285714286     6.633850297284495E-6     2.5933753503895544E-5    0.007101155101935202     1.3168693872924566
0.0030918367346938775    6.233950980635238E-6     2.4378001277184422E-5    0.006675164524891198     1.2378710442025476
0.0030979591836734696    5.858829690031603E-6     2.291558120282753E-5     0.00627472820980382      1.1636119691206994
0.0031040816326530613    5.506679336949691E-6     2.1540892905327832E-5    0.005898313403232452     1.0938077621571083
0.0031102040816326534    5.175933864528812E-6     2.0248672201958125E-5    0.005544479202245328     1.028191123631042
0.003116326530612245     4.865194290415764E-6     1.903397165064606E-5     0.0052118710912245295    0.9665108121125848
0.003122448979591837     4.573194442355277E-6     1.789214041253089E-5     0.004899215777530307     0.9085306725027219
0.003128571428571429     4.298769369203897E-6     1.681880687042352E-5     0.0046053163363628325    0.8540287239466284
0.0031346938775510206    4.0408409705838205E-6    1.5809861759908645E-5    0.004329047634832049     0.8027963061757557
0.0031408163265306123    3.7984050746481393E-6    1.4861442220185735E-5    0.0040693520301805465    0.7546372805496253
0.0031469387755102044    3.570525904868009E-6     1.396991799903895E-5     0.003825235319309878     0.7093672734371533
0.003153061224489796     3.356323458308603E-6     1.3131875371141698E-5    0.003595762944138665     0.6668129745239464
0.003159183673469388     3.1549742188672933E-6    1.2344105934699158E-5    0.0033800564061833003    0.6268114702001676
0.00316530612244898      2.9657063632555555E-6    1.1603594167637453E-5    0.003177289905229793     0.5892096207769262
0.0031714285714285716    2.7877949152075253E-6    1.0907505253610074E-5    0.002986687179776386     0.5538634720180092
0.0031775510204081637    2.6205563121735946E-6    1.025317392196489E-5     0.002807518538655509     0.5206377068838888
0.0031836734693877554    2.4633513165785955E-6    9.638095367475239E-6     0.002639098060179299     0.4894051248931855
0.003189795918367347     2.315576366752446E-6     9.059914835898138E-6     0.0024807809733417368    0.4600461575890016
0.003195918367346939     2.176666788103737E-6     8.516418782847465E-6     0.0023319611837439597    0.4324484078312323
0.003202040816326531     2.046090175164152E-6     8.005526554700013E-6     0.002192068958090665     0.40650622210547865
0.0032081632653061225    1.9233472833537997E-6    7.5252823718470044E-6    0.002060568738758666     0.38212028410866383
0.0032142857142857147    1.8079688100152411E-6    7.073848348978633E-6     0.0019369570966480385    0.35919723622705707
0.0032204081632653063    1.6995090076604428E-6    6.649493872762577E-6     0.0018207608068847411    0.33764932160153066
0.003226530612244898     1.5975569944885458E-6    6.250596790571093E-6     0.001711535025419403     0.31739404653057235
0.00323265306122449      1.5017211358425014E-6    5.875629218728769E-6     0.0016088615988993876    0.2983538668795075
0.003238775510204082     1.4116341678042755E-6    5.52315555040961E-6      0.0015123474578400944    0.2804558903227159
0.003244897959183674     1.3269516692385565E-6    5.191826606505706E-6     0.0014216231118700509    0.263631597019422
0.0032510204081632656    1.2473488448064337E-6    4.880373531049757E-6     0.0013363412371307502    0.24781657786384378
0.0032571428571428573    1.1725218675507154E-6    4.587604458804647E-6     0.0012561753437865784    0.23295028709760998
0.0032632653061224494    1.1021828846352459E-6    4.312398223820655E-6     0.0011808185302905705    0.2189758116855334
0.003269387755102041     1.0360640829741604E-6    4.053701321503045E-6     0.0011099823016563807    0.2058396521221905
0.003275510204081633     9.739115444240182E-7     3.810523481150857E-6     0.0010433954748792394    0.1934915189894047
0.003281632653061225     9.154889504411077E-7     3.5819343724720876E-6    9.808031301264072E-4     0.18188413926376767
0.0032877551020408166    8.60568194205691E-7      3.36705672011985E-6      9.219656452133716E-4     0.1709730753577778
0.0032938775510204087    8.0894349235669E-7       3.1650700434683565E-6    8.666577663768803E-4     0.16071655639864657
0.0033000000000000004    7.604156947056147E-7     2.9752003707745813E-6    8.146677567815661E-4     0.1510753166116051
0.0033000000000000004    7.604156947056147E-7     2.9752003707745813E-6    8.146677567815661E-4     0.1510753166116051
0.003355102040816327     4.3962680453083743E-7    1.720092807932019E-6     4.709951704992779E-4     0.08734326810013776
0.0034102040816326533    2.454323983903382E-7     9.602788502868336E-7     2.6294305059900645E-4    0.04876123336881477
0.00346530612244898      1.3435549648688294E-7    5.25673524712646E-7      1.4393947035839274E-4    0.026692723491409824
0.0035204081632653067    7.353720077555696E-8     2.877228602959607E-7     7.878415669037238E-5     0.014610055801828416
0.003575510204081633     4.159236313137687E-8     1.6273437452800422E-7    4.4559843622201005E-5    0.00826335941534082
0.0036306122448979596    2.3651179165304543E-8    9.253777753455477E-8     2.5338649704165945E-5    0.004698902701311913
0.003685714285714286     1.3323826577728586E-8    5.213106597278409E-8     1.4274509358707523E-5    0.002647123318280011
0.0037408163265306126    7.471863245518206E-9     2.9234115061037296E-8    8.00486114382001E-6      0.0014844541563435955
0.003795918367346939     4.202303352404388E-9     1.644213882038576E-8     4.502184018237363E-6     8.349033907534203E-4
0.0038510204081632655    2.3538862424411413E-9    9.209452636802808E-9     2.5217166443845917E-6    4.676374441216617E-4
0.003906122448979592     1.3086465368084749E-9    5.1204528769436856E-9    1.402087108793149E-6     2.600087546710101E-4
0.003961224489795918     7.395526529193792E-10    2.8935780024643944E-9    7.923181679894943E-7     1.4693071758611667E-4
0.004016326530612245     4.1685934536592126E-10   1.6309980359773103E-9    4.465988793051249E-7     8.281912062469762E-5
0.004071428571428571     2.336437299370587E-10    9.141527171987893E-10    2.503127778650804E-7     4.6419024059531084E-5
0.004126530612244899     1.3169183489342038E-10   5.152569943465725E-10    1.410873914400987E-7     2.616382218842844E-5
0.004181632653061224     7.408636258696627E-11    2.898702289777297E-10    7.937211116985513E-8     1.4719088519429763E-5
0.004236734693877552     4.1604353257965466E-11   1.627804517452988E-10    4.457243780579913E-8     8.265694959409101E-6
0.004291836734693877     2.3405638030658214E-11   9.157661148590029E-11    2.5075452591380947E-8    4.650094363834574E-6
0.0043469387755102045    1.3078952349796468E-11   5.11729039637401E-11     1.4012141882633382E-8    2.598468824845328E-6
0.004402040816326531     7.13231531765823E-12     2.7905810483786577E-11   7.64115183759525E-9      1.4170064109976256E-6
0.0044571428571428574    3.807889342382652E-12    1.489861614959133E-11    4.079528941626397E-9     7.565245146574905E-7
0.004512244897959184     2.021823112957094E-12    7.910447888424153E-12    2.1660321540945507E-9    4.0167785345844655E-7
0.00456734693877551      1.0943061220903306E-12   4.281780188704553E-12    1.1724378741099155E-9    2.1742166213858117E-7
0.004622448979591837     6.011053529863917E-13    2.351925885412579E-12    6.440046770689647E-10    1.1942685769920467E-7
0.004677551020408163     3.2538583504247413E-13   1.2729579899969714E-12   3.48557109714884E-10     6.463785781820694E-8
0.00473265306122449      1.7418065489902995E-13   6.816545983473615E-13    1.8665391652140816E-10   3.461386084017009E-8
0.004787755102040816     1.0296064542595238E-13   4.0266051400010074E-13   1.1025256515133728E-10   2.0445690777836642E-8
0.004842857142857143     7.327101376541444E-14    2.8635958674699273E-13   7.840405387150236E-11    1.4539574814587687E-8
0.004897959183673469     4.9586139631793986E-14   1.940162615649608E-13    5.3125551398408704E-11   9.851819115792755E-9
0.0049530612244897965    2.649610687387252E-14    1.0366972595102664E-13   2.8386862371777163E-11   5.2641756501420134E-9
0.005008163265306122     1.0868471430258265E-14   4.252444264627961E-14    1.1644101745487932E-11   2.1593296471187253E-9
0.005063265306122449     4.444086169796613E-15    1.738821647712018E-14    4.761242417190144E-12    8.829442313111602E-10
0.005118367346938775     2.439036638177686E-15    9.542897524755683E-15    2.6130293729328117E-12   4.845708475937661E-10
0.005173469387755102     1.2823642138219146E-15   5.017145298136452E-15    1.3737829460594607E-12   2.547599318265713E-10
0.005228571428571429     8.144929018848943E-16    3.186775090083417E-15    8.725994148764157E-13    1.618184011326623E-10
0.005283673469387755     5.174676121688652E-16    2.02420175183041E-15     5.542575917422526E-13    1.0278380644096137E-10
0.005338775510204082     3.285799221608519E-16    1.2856704973427687E-15   3.520534153210253E-13    6.528621567304748E-11
0.005393877551020408     2.0875419471244218E-16   8.166442228732509E-16    2.2361725479863787E-13   4.146849684475587E-11
0.005448979591836735     1.3257990007079504E-16   5.187270233656681E-16    1.4203720018763186E-13   2.6339958230322232E-11
0.005504081632653061     8.420902103546936E-17    3.294837689368672E-16    9.021918542535927E-14    1.6730614177417904E-11
0.0055591836734693876    5.348900108961413E-17    2.0928140918431411E-16   5.730542003946156E-14    1.0626951098697802E-11
0.005614285714285714     3.397523368783022E-17    1.3293152945154302E-16   3.639925461865301E-14    6.750026441759937E-12
0.0056693877551020405    2.1580984927038137E-17   8.44355658940687E-17     2.3120077027742255E-14   4.287481558664601E-12
0.005724489795918367     1.3707374752713424E-17   5.363159346458411E-17    1.4685410114128696E-14   2.7233224135414094E-12
0.005779591836734694     8.707005869931579E-18    3.4065846281219343E-17   9.327877991274402E-15    1.7297998220687553E-12
0.00583469387755102      5.529751266981926E-18    2.163796868560594E-17    5.924881672406178E-15    1.0987342206771906E-12
0.005889795918367347     3.508246147578197E-18    1.3741416229598407E-17   3.763369860223208E-15    6.978939997997627E-13
0.005944897959183673     2.231208873427205E-18    8.729881952606759E-18    2.390414581796146E-15    4.4328823823312024E-13
0.006                    1.4172146985716512E-18   5.5450463703064575E-18   1.5183435112545824E-15   2.815678238741679E-13
