% Model:              FEA_voltage_excit.mph
% Version:            COMSOL 6.0.0.318
% Date:               Jul 31 2022, 23:11
% Table:              Table 1 - Point Evaluation 1
% Time (s)               Magnetic flux density, x component (T), Point: 17Magnetic flux density, y component (T), Point: 17Magnetic flux density, z component (T), Point: 17Coil current (A), Point: 17
0                        0                        0                        0                        0
6.122448979591837E-6     -1.3448870118306314E-5   3.021763174302935E-6     6.666090695751592E-4     0.14005474441298424
1.2244897959183674E-5    -1.749713487921359E-5    6.685597069302004E-6     0.001618779785814943     0.3219909268608665
1.836734693877551E-5     -1.7720038538567458E-5   1.0069153871985769E-5    0.002524739610788773     0.4918641998876093
2.448979591836735E-5     -1.694897948568154E-5    1.323693087940135E-5     0.0033800433946671567    0.6512604466884595
3.061224489795918E-5     -1.6011547266437117E-5   1.620962794264731E-5     0.004185242446541501     0.8009423784441679
3.673469387755102E-5     -1.5123640245936916E-5   1.9001428085018378E-5    0.004942455697739517     0.941542393430186
4.285714285714286E-5     -1.4330028478454365E-5   2.1610140805723192E-5    0.0056502430840450184    1.072890639022921
4.89795918367347E-5      -1.3614832661680102E-5   2.407520561485652E-5     0.006319702317122211     1.1970860316601906
5.510204081632653E-5     -1.2969155171826882E-5   2.6380025909882954E-5    0.00694540038201538      1.3131436057217385
6.122448979591836E-5     -1.2379825460505628E-5   2.8547826181252165E-5    0.007534091629321282     1.4223260219092764
6.734693877551021E-5     -1.18227546123504E-5     3.063347951491884E-5     0.008100692110980943     1.5274068073996514
7.346938775510205E-5     -1.1301797582190001E-5   3.260852701056733E-5     0.008637103172536712     1.6268842659656957
7.959183673469388E-5     -1.0817161280046264E-5   3.446736975268329E-5     0.009141968464815915     1.7205086984617153
8.571428571428573E-5     -1.0365450395796224E-5   3.621311635866651E-5     0.009616140288973885     1.8084400293312552
9.183673469387756E-5     -9.943232043096453E-6    3.7851492455051395E-5    0.010061143376099164     1.890961407231988
9.79591836734694E-5      -9.548005603222007E-6    3.938860973841222E-5     0.010478655749130527     1.9683848170559366
1.0408163265306123E-4    -9.177665527739544E-6    4.0830656176747114E-5    0.010870336076005495     2.041017484530624
1.1020408163265306E-4    -8.830147192609392E-6    4.2183440161463036E-5    0.011237768685153759     2.109153920432561
1.1632653061224491E-4    -8.504564310994604E-6    4.345140638615325E-5     0.011582155277924281     2.1730164147754802
1.2244897959183673E-4    -8.199403423940562E-6    4.464044413402077E-5     0.011905109230626858     2.2329043702228515
1.2857142857142858E-4    -7.913102461896933E-6    4.57556313359141E-5      0.012208011394287054     2.2890742189009
1.3469387755102042E-4    -7.644435190699529E-6    4.6801811790661285E-5    0.012492169899592457     2.3417683532036406
1.4081632653061224E-4    -7.3924384582583265E-6   4.7783322357116965E-5    0.01275875881359302      2.391204212069732
1.469387755102041E-4     -7.1560475222334965E-6   4.870416004627292E-5     0.013008870931901017     2.4375846645478774
1.5306122448979594E-4    -6.934216150613028E-6    4.956807085397053E-5     0.013243522257858036     2.4810981906063025
1.5918367346938776E-4    -6.726102622366568E-6    5.03785794585175E-5      0.0134636667732372       2.521921532473193
1.653061224489796E-4     -6.530896593122928E-6    5.11389716529391E-5      0.013670199778584361     2.5602207416255136
1.7142857142857145E-4    -6.347738412085989E-6    5.185234720733408E-5     0.013863962223831001     2.59615181956871
1.7755102040816327E-4    -6.175886739642159E-6    5.252161373462266E-5     0.014045743548636259     2.6298611421178664
1.8367346938775512E-4    -6.0146805769182515E-6   5.3149495759698134E-5    0.01421628465238866      2.6614860762369617
1.8979591836734694E-4    -5.863450827604315E-6    5.3738552256669424E-5    0.014376280599393018     2.6911555282488733
1.959183673469388E-4     -5.721557218238745E-6    5.429118619038767E-5     0.01452638345237792      2.7189904294085876
2.0204081632653063E-4    -5.588436541572371E-6    5.480964963710987E-5     0.01466720496849925      2.745104205894011
2.0816326530612245E-4    -5.463560168413235E-6    5.529605225932572E-5     0.014799319060798313     2.7696032906519865
2.142857142857143E-4     -5.346397361548165E-6    5.575238183183845E-5     0.014923264120838166     2.79258751082501
2.2040816326530612E-4    -5.2364725543221825E-6   5.6180496184252025E-5    0.015039545263549104     2.81415054380915
2.2653061224489797E-4    -5.133352810399646E-6    5.6582136648144787E-5    0.015148636385808968     2.8343802743306057
2.3265306122448982E-4    -5.036611708743674E-6    5.695894211878474E-5     0.015250982063562925     2.8533591364127893
2.3877551020408164E-4    -4.945848151637369E-6    5.731244898128235E-5     0.015346999380952832     2.8711644757459087
2.4489795918367346E-4    -4.860695050649447E-6    5.7644098501557983E-5    0.015437079644401752     2.887868849615469
2.510204081632653E-4     -4.780808403726639E-6    5.795524062732113E-5     0.015521589962232673     2.903540342598109
2.5714285714285715E-4    -4.705863698152758E-6    5.8247143168718607E-5    0.01560087474364351      2.9182428198427
2.63265306122449E-4      -4.6355528121073585E-6   5.852099680311344E-5     0.015675257097634784     2.9320361935945862
2.6938775510204085E-4    -4.569586768359958E-6    5.87779174987539E-5      0.01574504015356562      2.9449766807422897
2.755102040816327E-4     -4.507701898977888E-6    5.90189516303571E-5      0.015810508305996125     2.9571170173149812
2.816326530612245E-4     -4.449642831640542E-6    5.924509591355993E-5     0.015871932387874668     2.9685074273640084
2.8775510204081633E-4    -4.395166854129245E-6    5.9457263833333595E-5    0.01592956000755865      2.9791938252401113
2.938775510204082E-4     -4.344055310614189E-6    5.9656319700167794E-5    0.015983626091857894     2.989219776292882
3.0000000000000003E-4    -4.296113104430646E-6    5.9843062991413365E-5    0.016034348245084377     2.9986256317503672
3.0000000000000003E-4    -4.296113104430646E-6    5.9843062991413365E-5    0.016034348245084377     2.9986256317503672
3.5510204081632654E-4    -3.9782291421662644E-6   6.108157258538607E-5     0.01637074759277609      3.0610070914970713
4.102040816326531E-4     -3.7977501842914213E-6   6.178424377053427E-5     0.016561602657783333     3.0963990639851278
4.6530612244897963E-4    -3.6942390364622105E-6   6.21872907774223E-5      0.0166710684424351       3.116698266679336
5.204081632653062E-4     -3.630559956047247E-6    6.243573064799895E-5     0.016738552946105337     3.129212505166786
5.755102040816327E-4     -3.597940831740593E-6    6.256288549750781E-5     0.016773216822314498     3.135640519892695
6.306122448979592E-4     -3.5834758599748497E-6   6.261866071534672E-5     0.016788254715358233     3.1384291520267156
6.857142857142858E-4     -3.577484301807638E-6    6.264160121692131E-5     0.016794373044255666     3.139563750642434
7.408163265306123E-4     -3.5747216955677525E-6   6.265282080562458E-5     0.016797530012184533     3.1401491471686587
7.959183673469388E-4     -3.5727047368395493E-6   6.266086761729901E-5     0.01679973065517528      3.1405572228665863
8.510204081632654E-4     -3.571027352350354E-6    6.266715118429895E-5     0.016801405112847716     3.1408677453246687
9.06122448979592E-4      -3.5700007513405966E-6   6.267110511083523E-5     0.016802477861253995     3.141066675972581
9.612244897959184E-4     -3.569423088697248E-6    6.267342380608897E-5     0.016803113837580052     3.1411846066959743
0.001016326530612245     -3.5690890800751132E-6   6.267473002675129E-5     0.016803468185282024     3.1412503163798786
0.0010714285714285717    -3.5689086527244506E-6   6.267542144064905E-5     0.016803655624638415     3.1412850756198845
0.0011265306122448982    -3.5688167788442006E-6   6.267577072629921E-5     0.016803750025011024     3.1413025815293305
0.0011816326530612246    -3.568773427733343E-6    6.26759373421243E-5      0.01680379519366186      3.1413109576721725
0.001236734693877551     -3.5687536192372578E-6   6.267601250346531E-5     0.016803815558272983     3.1413147341893186
0.0012918367346938775    -3.568745117570293E-6    6.267604393930117E-5     0.016803824050536226     3.141316309082983
0.0013469387755102044    -3.5687428891160933E-6   6.267605025864934E-5     0.016803825697774465     3.1413166146755396
0.001402040816326531     -3.5687423053551116E-6   6.267605387249333E-5     0.016803826723047855     3.141316804728388
0.0014571428571428574    -3.568741775859227E-6    6.267605511709277E-5     0.016803827038024167     3.1413168631849495
0.0015122448979591838    -3.568741747869818E-6    6.267605568878879E-5     0.016803827203992375     3.141316893935797
0.0015673469387755103    -3.5687415856819443E-6   6.267605607983252E-5     0.01680382730403694      3.1413169125015035
0.0016224489795918368    -3.568741565640017E-6    6.267605629570568E-5     0.016803827366000557     3.1413169239842773
0.0016775510204081637    -3.568741509099174E-6    6.267605644364115E-5     0.01680382740438738      3.141316931106683
0.0017326530612244901    -3.5687414980714754E-6   6.267605652783223E-5     0.016803827428251226     3.141316935529693
0.0017877551020408166    -3.5687414780648604E-6   6.267605658424152E-5     0.016803827443049472     3.141316938275037
0.001842857142857143     -3.568741472820772E-6    6.267605661702592E-5     0.016803827452247067     3.141316939979952
0.0018979591836734695    -3.5687414656502687E-6   6.267605663858695E-5     0.016803827457952242     3.141316941038257
0.001953061224489796     -3.568741463330432E-6    6.267605665132749E-5     0.016803827461497348     3.1413169416954565
0.002008163265306123     -3.568741460733717E-6    6.267605665958018E-5     0.01680382746369681      3.141316942103422
0.0020632653061224493    -3.5687414597442073E-6   6.267605666452318E-5     0.016803827465063263     3.141316942356757
0.002118367346938776     -3.568741458799466E-6    6.267605666767982E-5     0.01680382746591119      3.141316942514022
0.0021734693877551023    -3.5687414583856262E-6   6.267605666960921E-5     0.016803827466437896     3.1413169426116774
0.0022285714285714287    -3.568741458035118E-6    6.267605667081894E-5     0.016803827466764773     3.1413169426723013
0.002283673469387755     -3.568741457869163E-6    6.267605667156305E-5     0.016803827466967795     3.141316942709945
0.0023387755102040816    -3.568741457739798E-6    6.267605667202484E-5     0.016803827467093815     3.1413169427333147
0.0023938775510204085    -3.5687414576723495E-6   6.267605667231339E-5     0.01680382746717207      3.1413169427478254
0.002448979591836735     -3.5687414576235024E-6   6.267605667249144E-5     0.016803827467220648     3.141316942756834
0.0025040816326530615    -3.568741457595371E-6    6.267605667260057E-5     0.016803827467250818     3.141316942762428
0.002559183673469388     -3.5687414575790577E-6   6.267605667267305E-5     0.01680382746726954      3.1413169427659002
0.0026142857142857144    -3.5687414575674004E-6   6.267605667271647E-5     0.01680382746728117      3.1413169427680567
0.002669387755102041     -3.5687414575623085E-6   6.267605667273945E-5     0.01680382746728839      3.141316942769395
0.0027244897959183677    -3.568741457553089E-6    6.267605667275817E-5     0.016803827467292864     3.1413169427702266
0.002779591836734694     -3.568741457558297E-6    6.267605667276846E-5     0.016803827467295654     3.1413169427707426
0.0028346938775510207    -3.568741457551694E-6    6.267605667277733E-5     0.016803827467297375     3.1413169427710628
0.002889795918367347     -3.5687414575540614E-6   6.267605667277854E-5     0.016803827467298457     3.1413169427712617
0.0029448979591836736    -3.568741457549195E-6    6.267605667278145E-5     0.016803827467299116     3.141316942771385
0.003                    -3.5687414575478416E-6   6.267605667278512E-5     0.016803827467299536     3.141316942771462
0.003                    -3.5687414575478416E-6   6.267605667278512E-5     0.016803827467299536     3.141316942771462
0.0030061224489795917    1.0174279535370977E-5    5.857729240288748E-5     0.015849916102556077     2.947288849239696
0.003012244897959184     1.369270433570292E-5     5.497615477801078E-5     0.014912305780352674     2.768450556248624
0.0030183673469387756    1.3846181962428717E-5    5.165346210314597E-5     0.014021150052405753     2.6014575806600067
0.0030244897959183672    1.3106819124895694E-5    4.8547959438017804E-5    0.013182522245193675     2.4452213896357824
0.0030306122448979594    1.2189675457385394E-5    4.5632607368098496E-5    0.012392689478505393     2.298432582306339
0.003036734693877551     1.1308213909823893E-5    4.286350446095866E-5     0.011641543206387772     2.1589646208360245
0.003042857142857143     1.0498451401333345E-5    4.022739336992296E-5     0.010925946286678626     2.026164692626639
0.003048979591836735     9.773339340708908E-6     3.774137410166806E-5     0.010250915696589246     1.9009446680880062
0.0030551020408163265    9.12313726887114E-6      3.5406741929649464E-5    0.009616912870418997     1.7833583619252746
0.0030612244897959186    8.538393195937996E-6     3.32153099531726E-5      0.009021721020920812     1.6729793373169555
0.0030673469387755103    8.002230782606469E-6     3.115906499980745E-5     0.008463227975685583     1.5694107820922454
0.003073469387755102     7.503966594611946E-6     2.922833487624906E-5     0.007938803518947402     1.4721616656791894
0.003079591836734694     7.038466686184159E-6     2.74180544573582E-5      0.007447115450762826     1.380983620118241
0.003085714285714286     6.602644134229025E-6     2.5720314166732608E-5    0.006985991368545477     1.2954734458184707
0.0030918367346938775    6.193910651412715E-6     2.4126352004574285E-5    0.006553033851410452     1.2151865235610737
0.0030979591836734696    5.81039254332221E-6      2.2631975776373375E-5    0.006147149245215977     1.1399198805643027
0.0031040816326530613    5.450663329344626E-6     2.1230567484815726E-5    0.005766511880391965     1.0693349543224333
0.0031102040816326534    5.113276024083481E-6     1.991607977408782E-5     0.0054094782913571655    1.0031271018175147
0.003116326530612245     4.796745552974437E-6     1.8683013903632183E-5    0.0050745604650995835    0.9410203642269978
0.003122448979591837     4.499645822774329E-6     1.7525250731695937E-5    0.0047600870254004436    0.8827048304209982
0.003128571428571429     4.220874416114799E-6     1.6439769794812753E-5    0.004465262623284626     0.8280329456343044
0.0031346938775510206    3.959460962466464E-6     1.5421801895894315E-5    0.004188771656369561     0.7767607619952098
0.0031408163265306123    3.714198690375661E-6     1.4466060183288703E-5    0.003929170357546653     0.7286206303536463
0.0031469387755102044    3.4840811713634227E-6    1.357003255000064E-5     0.003685803165992955     0.6834909195410283
0.003153061224489796     3.2682909752120395E-6    1.2729752961705621E-5    0.003457574558240134     0.6411684541966702
0.003159183673469388     3.0659414640593734E-6    1.1941591943245481E-5    0.003243498794319298     0.6014705007317951
0.00316530612244898      2.876124393376617E-6     1.120225102139782E-5     0.0030426835722245477    0.5642315721209733
0.0031714285714285716    2.6979723114451915E-6    1.0508061255997589E-5    0.002854126710614683     0.5292658364782932
0.0031775510204081637    2.5308179706417165E-6    9.857211805239633E-6     0.00267735132692057      0.4964848192627528
0.0031836734693877554    2.3740744356941066E-6    9.246842853366874E-6     0.002511568589745357     0.46574224875336906
0.003189795918367347     2.227016075300805E-6     8.67378442148559E-6      0.0023559128213873765    0.4368776428317788
0.003195918367346939     2.0890388396838006E-6    8.136530295050947E-6     0.002209990950854367     0.4098180718148356
0.003202040816326531     1.9596522236086377E-6    7.632702446979477E-6     0.0020731461070631007    0.38444171255279797
0.0032081632653061225    1.8382637145831611E-6    7.159674864844915E-6     0.0019446609554807336    0.36061559018183315
0.0032142857142857147    1.7243727445856267E-6    6.716203675336065E-6     0.0018242111455178095    0.33827952724364657
0.0032204081632653063    1.617571864454525E-6     6.300324512484024E-6     0.0017112540852458472    0.3173328926779318
0.003226530612244898     1.5173729835731792E-6    5.909869222866997E-6     0.0016051974692957093    0.2976658892987751
0.00323265306122449      1.4233631333610175E-6    5.543811103842578E-6     0.0015057735730099652    0.2792288456626656
0.003238775510204082     1.3352056137949685E-6    5.200528534888029E-6     0.0014125344939950079    0.2619386921216108
0.003244897959183674     1.2525391514110614E-6    4.878538392260496E-6     0.0013250773843830857    0.2457207504245896
0.0032510204081632656    1.1749926353476368E-6    4.576492962980864E-6     0.0012430376655154225    0.23050740555474392
0.0032571428571428573    1.1022116156199249E-6    4.2928932914111705E-6    0.0011660058977119327    0.21622273617751786
0.0032632653061224494    1.0339234928937437E-6    4.026999586900904E-6     0.001093787259516934     0.2028305976827884
0.003269387755102041     9.698885369850116E-7     3.777643522733588E-6     0.0010260594849941318    0.19027123282494746
0.003275510204081633     9.098102991115484E-7     3.54353005166013E-6      9.624689149670047E-4     0.1784790791285633
0.003281632653061225     8.534419987035631E-7     3.3240438325767283E-6    9.028549668740504E-4     0.16742434239823292
0.0032877551020408166    8.005832527777448E-7     3.1182133627830625E-6    8.469492868404531E-4     0.1570572537890296
0.0032938775510204087    7.510168391656403E-7     2.9251495833256356E-6    7.945104130919395E-4     0.14733305181685832
0.0033000000000000004    7.045202812071651E-7     2.744044517988187E-6     7.453197719832608E-4     0.13821119964233147
0.0033000000000000004    7.045202812071651E-7     2.744044517988187E-6     7.453197719832608E-4     0.13821119964233147
0.003355102040816327     3.9291001368536266E-7    1.5300022870693325E-6    4.1556069978691574E-4    0.07706108887714125
0.0034102040816326507    2.1816410917033122E-7    8.492465930123435E-7     2.3065443110092314E-4    0.04277229713062037
0.00346530612244898      1.2248596778323468E-7    4.771270518107491E-7     1.2959617947284576E-4    0.024032158447301392
0.0035204081632653067    6.957766582638676E-8     2.711119452398238E-7     7.364104371363695E-5     0.013655903333797563
0.003575510204081633     3.949850745217501E-8     1.5393630290844918E-7    4.1814846627197185E-5    0.007754091003918733
0.0036306122448979596    2.2343259673659838E-8    8.704707164583207E-8     2.3644930131064705E-5    0.004384685251913818
0.003685714285714286     1.2568008624150757E-8    4.894862572256366E-8     1.3294106049284392E-5    0.0024652448101380622
0.0037408163265306126    7.020206093169446E-9     2.734551866710221E-8     7.430629096138358E-6     0.0013779236766995587
0.003795918367346939     3.928314498792872E-9     1.5231583485836267E-8    4.1340963932060635E-6    7.666251702559666E-4
0.0038510204081632655    2.1602039067583357E-9    8.48603577187263E-9      2.309499010002567E-6     4.2826634515419847E-4
0.003906122448979592     1.2215949651197404E-9    4.723629147721216E-9     1.2877708133007355E-6    2.3879637880055589E-4
0.003961224489795918     6.906624808249846E-10    2.672056607500387E-9     7.217076688360198E-7     1.3383733986357293E-4
0.004016326530612245     3.8518955726328597E-10   1.4961941367530001E-9    4.0595319500728327E-7    7.527992280365858E-5
0.004071428571428571     2.1288424573256385E-10   8.361118450496881E-10    2.2790067622904235E-7    4.226077241578461E-5
0.004126530612244899     1.22445934870674E-10     4.721649249286384E-10    1.2777252153868577E-7    2.369449643277707E-5
0.004181632653061224     6.626077461744877E-11    2.624322638282573E-10    7.173430409613398E-8     1.3301821136386453E-5
0.004236734693877552     3.728203089428322E-11    1.475891379877855E-10    4.034286404938866E-8     7.480908280477762E-6
0.004291836734693877     2.3206854109145406E-11   8.561371705726041E-11    2.27375159564344E-8      4.216868431924263E-6
0.0043469387755102045    7.209935948837545E-12    4.188922583086227E-11    1.2836562227055515E-8    2.3789832767625057E-6
0.004402040816326531     1.5951012795725745E-11   3.641964252806048E-11    7.201485639927623E-9     1.3381365388429298E-6
0.0044571428571428574    -1.1813233021196364E-11  -1.8048094724934991E-12  4.115757328644324E-9     7.585476280326905E-7
0.004512244897959184     2.576434876223195E-11    3.344554634327602E-11    2.2316407743287986E-9    4.211222696641054E-7
0.00456734693877551      -6.203820629174991E-13   2.6921243861380166E-12   1.279340399748407E-9     2.3667385765907337E-7
0.004622448979591837     6.88576790263968E-13     2.678956766821354E-12    7.293888641380853E-10    1.3526670743748046E-7
0.004677551020408163     3.244333060381292E-13    1.4932363562617E-12      4.2960258689928096E-10   7.963767339921687E-8
0.00473265306122449      2.6311697278117673E-13   9.67690429605116E-13     2.5618252870638903E-10   4.751321069655001E-8
0.004787755102040816     1.413269158522445E-13    5.537295908275807E-13    1.521972357939289E-10    2.822168902260442E-8
0.004842857142857143     8.560382405213399E-14    3.325903859738994E-13    8.746670281943638E-11    1.6222042193831236E-8
0.004897959183673469     5.44948013729806E-14     1.837363580481196E-13    4.3542461582641465E-11   8.080302365562683E-9
0.0049530612244897965    1.9114084584030877E-14   7.42980754572686E-14     2.0173300981719072E-11   3.740919975252341E-9
0.005008163265306122     9.417114373686613E-15    3.654087594026907E-14    9.933134008378066E-12    1.841987006786535E-9
0.005063265306122449     5.500360752825873E-15    2.1537354555917076E-14   5.843364989059788E-12    1.083587226453986E-9
0.005118367346938775     3.72106194664853E-15     1.4310837913570186E-14   3.8850077414395056E-12   7.20395468940311E-10
0.005173469387755102     2.4351694467317652E-15   9.480891378278775E-15    2.5749450549482918E-12   4.774945293815953E-10
0.005228571428571429     1.4632682287509602E-15   5.700012475059914E-15    1.5476031567368358E-12   2.8698749867617403E-10
0.005283673469387755     8.117849442071257E-16    3.1885996756344404E-15   8.67023537169324E-13     1.607828907849256E-10
0.005338775510204082     4.516565700733904E-16    1.7258338591467605E-15   4.673664292812518E-13    8.666886516704271E-11
0.005393877551020408     2.299612535222166E-16    8.923779012048778E-16    2.420533101033006E-13    4.48861043001674E-11
0.005448979591836735     1.2327076159363818E-16   4.794856234198726E-16    1.304493914587233E-13    2.4189631295927405E-11
0.005504081632653061     7.152628448431022E-17    2.8088762181261037E-16   7.639190215964274E-14    1.416605724073662E-11
0.0055591836734693876    4.4082404530449976E-17   1.7333766540456056E-16   4.717907357087863E-14    8.74864869982795E-12
0.005614285714285714     2.6981972010475563E-17   1.068558689512755E-16    2.9051939106290605E-14   5.387349135653188E-12
0.0056693877551020405    1.5769934751120092E-17   6.137453973491565E-17    1.6659104071320604E-14   3.089256654880813E-12
0.005724489795918367     8.539447769895793E-18    3.358619353949764E-17    9.118920795361537E-15    1.691022493229405E-12
0.005779591836734694     4.521572792635134E-18    1.7617305164826066E-17   4.782956286027441E-15    8.869472905539734E-13
0.00583469387755102      2.2963799619278738E-18   8.91330400725525E-18     2.4183634760970143E-15   4.484579081321591E-13
0.005889795918367347     1.1217280158575842E-18   4.358432861320347E-18    1.1821654098861406E-15   2.1922016346512615E-13
0.005944897959183673     5.311614249093337E-19    2.0614281802933428E-18   5.589422330440424E-16    1.0364999823405524E-13
0.006                    2.42985927002745E-19     9.414523212566163E-19    2.5514330275312075E-16   4.7313576661539666E-14
