% Model:              FEA_voltage_excitation.mph
% Version:            COMSOL 6.0.0.318
% Date:               Jul 31 2022, 11:22
% Table:              Table 1 - Point Evaluation 1
% Switch 1 index         Time (s)                 Magnetic flux density, z component (T), Point: 5Coil current (A), Point: 5
1                        0                        1.7519937502913418E-6    4.2557727931126006E-4
1                        6.060606060606061E-5     0.007707189356104518     1.487475005507394
1                        1.2121212121212122E-4    0.0119401528356484       2.2513036662684263
1                        1.8181818181818183E-4    0.014211063586018455     2.6525820461410676
1                        2.4242424242424245E-4    0.015453646805263791     2.8705334701951237
1                        3.0303030303030303E-4    0.016148513447081847     2.991208629562358
1                        3.6363636363636367E-4    0.016540267174932916     3.058611225958236
1                        4.242424242424243E-4     0.016766028890125947     3.097199315423167
1                        4.848484848484849E-4     0.016880667536660683     3.1166307809303393
1                        5.454545454545455E-4     0.0169514877985445       3.128604141372944
1                        6.060606060606061E-4     0.016990741881186704     3.1351963015493998
1                        6.666666666666668E-4     0.017013668539915067     3.1390202333211845
1                        7.272727272727273E-4     0.017028806536717633     3.1415408534848925
1                        7.878787878787879E-4     0.01703285147873968      3.142198944764779
1                        8.484848484848486E-4     0.017031780136132428     3.1420105421093174
1                        9.090909090909092E-4     0.017030708793525175     3.1418221394538564
1                        9.696969696969698E-4     0.017029637450917914     3.141633736798395
1                        0.0010303030303030305    0.017028566108310658     3.141445334142934
1                        0.001090909090909091     0.0170278176064751       3.1413139955464375
1                        0.0011515151515151516    0.017027545523528517     3.1412668668699912
1                        0.0012121212121212121    0.017027273440581938     3.141219738193545
1                        0.0012727272727272728    0.017027001357635362     3.1411726095170986
1                        0.0013333333333333335    0.017026729274688783     3.1411254808406524
1                        0.001393939393939394     0.017026579918511083     3.1410996546800445
1                        0.0014545454545454547    0.01702654016905837      3.141092853700466
1                        0.0015151515151515154    0.017026500419605663     3.1410860527208873
1                        0.0015757575757575758    0.01702646067015295      3.141079251741308
1                        0.0016363636363636365    0.01702642092070024      3.1410724507617296
1                        0.0016969696969696972    0.01702638117124753      3.1410656497821505
1                        0.0017575757575757577    0.017026341421794815     3.141058848802572
1                        0.0018181818181818184    0.017026301672342103     3.141052047822993
1                        0.0018787878787878789    0.017026261922889394     3.1410452468434142
1                        0.0019393939393939396    0.01702622217343668      3.1410384458638356
1                        0.002                    0.017026208973602148     3.1410361946725303
1                        0.002060606060606061     0.017026203399850667     3.141035250357389
1                        0.0021212121212121214    0.01702619782609918      3.141034306042248
1                        0.002181818181818182     0.017026192252347697     3.1410333617271067
1                        0.002242424242424243     0.017026186678596206     3.1410324174119655
1                        0.0023030303030303033    0.01702618110484472      3.1410314730968243
1                        0.0023636363636363638    0.017026175531093233     3.141030528781683
1                        0.0024242424242424242    0.017026169957341748     3.141029584466542
1                        0.002484848484848485     0.017026164383590264     3.1410286401514007
1                        0.0025454545454545456    0.017026158809838775     3.1410276958362595
1                        0.002606060606060606     0.017026155701639244     3.141027169592037
1                        0.002666666666666667     0.01702615293969533      3.1410267020605924
1                        0.0027272727272727275    0.01702615064838106      3.1410263146193356
1                        0.002787878787878788     0.017026149213128224     3.1410260726982155
1                        0.002848484848484849     0.01702614856875717      3.1410259645453413
1                        0.0029090909090909093    0.017026147924386115     3.1410258563924667
1                        0.00296969696969697      0.017026147404382533     3.1410257692205703
1                        0.0030303030303030307    0.01272552275277919      2.291102643971088
1                        0.003090909090909091     0.006987888747290613     1.2306379164867605
1                        0.0031515151515151517    0.003743700993903255     0.6495046567774138
1                        0.0032121212121212126    0.002007805928801533     0.3445838293619651
1                        0.003272727272727273     0.0011061341646697697    0.18848486708454065
1                        0.0033333333333333335    6.113701784882172E-4     0.10352373149024066
1                        0.0033939393939393945    3.364718947451512E-4     0.056649710115170754
1                        0.003454545454545455     1.8560444397717823E-4    0.031102463072335346
1                        0.0035151515151515154    1.0222937740447157E-4    0.01706102596856696
1                        0.003575757575757576     5.5719097357204634E-5    0.009259975143786382
1                        0.003636363636363637     3.0305551189215603E-5    0.005018401537660279
1                        0.0036969696969696973    1.6789612149703152E-5    0.0027756365910837607
1                        0.0037575757575757577    9.305022754009597E-6     0.0015365238463637444
1                        0.0038181818181818187    5.092489401200441E-6     8.393667310520949E-4
1                        0.003878787878787879     2.76323149942073E-6      4.544883229599438E-4
1                        0.00393939393939394      1.520059494709396E-6     2.4980446920049986E-4
1                        0.004                    8.470745274899566E-7     1.3920924895909946E-4
1                        0.0040606060606060606    4.676413187088394E-7     7.681514850836831E-5
1                        0.004121212121212122     2.5391089257164547E-7    4.166007245785556E-5
1                        0.004181818181818182     1.392982987863756E-7     2.2846213855116695E-5
1                        0.004242424242424243     7.749263443147156E-8     1.2714871266043989E-5
1                        0.004303030303030303     4.290991585335112E-8     7.040236546208854E-6
1                        0.004363636363636364     2.3775011989867315E-8    3.899166367421174E-6
1                        0.004424242424242424     1.3397103513768946E-8    2.196861260115467E-6
1                        0.004484848484848486     7.609086683199401E-9     1.2478164621502358E-6
1                        0.004545454545454546     4.320501692065803E-9     7.085762845833195E-7
1                        0.004606060606060607     2.4174032757688964E-9    3.9645342318727253E-7
1                        0.004666666666666667     1.3445451873321065E-9    2.20493282355019E-7
1                        0.0047272727272727275    7.563114058697275E-10    1.2402516836882356E-7
1                        0.004787878787878788     4.286199616124559E-10    7.028845468564288E-8
1                        0.0048484848484848485    2.433218892984135E-10    3.990201121362595E-8
1                        0.00490909090909091      1.362239216734609E-10    2.2339106588463785E-8
1                        0.00496969696969697      7.571655123330314E-11    1.2416484079705253E-8
1                        0.005030303030303031     4.2561861694425415E-11   6.979534271069594E-9
1                        0.005090909090909091     2.4112186072913202E-11   3.954050360931476E-9
1                        0.005151515151515152     1.3688993792923648E-11   2.244796905347563E-9
1                        0.005212121212121212     7.665213742612924E-12    1.2569820777423357E-9
1                        0.0052727272727272735    4.261289526874797E-12    6.987870766688859E-10
1                        0.005333333333333334     2.395894136667251E-12    3.92889910815989E-10
1                        0.0053939393939393945    1.3574200459380053E-12   2.2259596030066605E-10
1                        0.005454545454545455     7.709637255333002E-13    1.2642609781071138E-10
1                        0.0055151515151515155    4.3197907904888836E-13   7.083783049065615E-11
1                        0.005575757575757576     2.40061471740618E-13     3.93663007017657E-11
1                        0.005636363636363637     1.3494058940023007E-13   2.2128125750387852E-11
1                        0.005696969696969698     7.644752531715711E-14    1.2536182059626551E-11
1                        0.005757575757575758     4.3459271264276314E-14   7.126631968975777E-12
1                        0.005818181818181819     2.439737297396092E-14    4.0007806905284304E-12
1                        0.005878787878787879     1.3547939980014545E-14   2.2216470546034825E-12
1                        0.00593939393939394      7.609987887439871E-15    1.2479162317727832E-12
1                        0.006                    4.319809082687299E-15    7.083797136998291E-13
2                        0                        1.745800916765646E-6     4.2601092122664303E-4
2                        6.060606060606061E-5     0.007256461948752816     1.5166634053645602
2                        1.2121212121212122E-4    0.011325629509667201     2.277692054588556
2                        1.8181818181818183E-4    0.01356472945465327      2.6676463200974894
2                        2.4242424242424245E-4    0.014832320461716085     2.8760165730047804
2                        3.0303030303030303E-4    0.0155783195900514       2.9903782657281046
2                        3.6363636363636367E-4    0.01603145669286768      3.0541505588925437
2                        4.242424242424243E-4     0.01631855206417989      3.0909415786324743
2                        4.848484848484849E-4     0.01649155269922252      3.109700232489001
2                        5.454545454545455E-4     0.01661378574873964      3.121568418560146
2                        6.060606060606061E-4     0.01669844223774926      3.1285281161711285
2                        6.666666666666668E-4     0.016761348948006568     3.132937875886684
2                        7.272727272727273E-4     0.01681089384698204      3.136045101190303
2                        7.878787878787879E-4     0.016841384341907586     3.137275628869781
2                        8.484848484848486E-4     0.016859682489220002     3.137547307491167
2                        9.090909090909092E-4     0.016877980636532404     3.1378189861125523
2                        9.696969696969698E-4     0.016889935754434676     3.1380561274485195
2                        0.0010303030303030305    0.016900964928979495     3.138288227097313
2                        0.001090909090909091     0.016911994103524314     3.1385203267461073
2                        0.0011515151515151516    0.01692302327806914      3.138752426394901
2                        0.0012121212121212121    0.01693403787337123      3.138984257283713
2                        0.0012727272727272728    0.016940842414764734     3.139138478242307
2                        0.0013333333333333335    0.016947646956158233     3.139292699200901
2                        0.001393939393939394     0.016954451497551735     3.1394469201594952
2                        0.0014545454545454547    0.016961256038945233     3.139601141118089
2                        0.0015151515151515154    0.01696756853446034      3.139744100477583
2                        0.0015757575757575758    0.016970708884611142     3.1398144580108074
2                        0.0016363636363636365    0.016973849234761945     3.1398848155440318
2                        0.0016969696969696972    0.016976989584912745     3.139955173077256
2                        0.0017575757575757577    0.016980129935063544     3.1400255306104805
2                        0.0018181818181818184    0.016983270285214347     3.140095888143705
2                        0.0018787878787878789    0.01698641063536515      3.1401662456769293
2                        0.0019393939393939396    0.016989550985515953     3.140236603210154
2                        0.002                    0.016992691335666752     3.1403069607433785
2                        0.002060606060606061     0.01699583168581755      3.140377318276603
2                        0.0021212121212121214    0.016998319284432052     3.1404326466436565
2                        0.002181818181818182     0.016999811076243446     3.1404650472271887
2                        0.002242424242424243     0.017001302868054846     3.140497447810721
2                        0.0023030303030303033    0.01700279465986624      3.140529848394253
2                        0.0023636363636363638    0.01700428645167764      3.140562248977785
2                        0.0024242424242424242    0.01700577824348904      3.1405946495613177
2                        0.002484848484848485     0.01700727003530044      3.14062705014485
2                        0.0025454545454545456    0.017008761827111835     3.140659450728382
2                        0.002606060606060606     0.017010253618923235     3.140691851311914
2                        0.002666666666666667     0.017011745410734636     3.140724251895447
2                        0.0027272727272727275    0.01701302541901601      3.1407518363960754
2                        0.002787878787878788     0.017014195165821186     3.1407769134854315
2                        0.002848484848484849     0.017015339293661003     3.140801413468527
2                        0.0029090909090909093    0.01701636875551541      3.1408233304254503
2                        0.00296969696969697      0.017017325893335038     3.1408436277805696
2                        0.0030303030303030307    0.012903740775138995     2.256393349857491
2                        0.003090909090909091     0.007397428893068704     1.1724880827192667
2                        0.0031515151515151517    0.004310898290763898     0.6128003113957142
2                        0.0032121212121212126    0.0026128382969798697    0.3265688725110826
2                        0.003272727272727273     0.0016706062394220684    0.17972942738569492
2                        0.0033333333333333335    0.00113259811407537      0.1033215231987577
2                        0.0033939393939393945    8.038839273917471E-4     0.06103235900410008
2                        0.003454545454545455     5.959061608005547E-4     0.0373185515698452
2                        0.0035151515151515154    4.6001332177528177E-4    0.0239456130254263
2                        0.003575757575757576     3.6645857370757364E-4    0.016059034182447834
2                        0.003636363636363637     2.994316478490115E-4     0.011271447211142954
2                        0.0036969696969696973    2.4987640245639146E-4    0.008317455460625312
2                        0.0037575757575757577    2.1186997818680505E-4    0.006407929388164969
2                        0.0038181818181818187    1.817641317144413E-4     0.005100408462493806
2                        0.003878787878787879     1.5735186433216955E-4    0.004164646735376196
2                        0.00393939393939394      1.3720558500252445E-4    0.003472182848652779
2                        0.004                    1.2027114106158066E-4    0.002933607484748621
2                        0.0040606060606060606    1.0585823760491666E-4    0.002500512435356814
2                        0.004121212121212122     9.354404168915824E-5     0.0021541880349965218
2                        0.004181818181818182     8.293708941042437E-5     0.001871468198069218
2                        0.004242424242424243     7.375855602686251E-5     0.0016392563676405373
2                        0.004303030303030303     6.57491371340384E-5      0.0014436841834582009
2                        0.004363636363636364     5.8732622775114444E-5    0.0012773089456599857
2                        0.004424242424242424     5.253955930701953E-5     0.0011328544541659776
2                        0.004484848484848486     4.706885970080851E-5     0.0010073735638866897
2                        0.004545454545454546     4.22115448699175E-5      8.972148187004829E-4
2                        0.004606060606060607     3.788256560068958E-5     8.001206318401293E-4
2                        0.004666666666666667     3.4029318594672734E-5    7.147863337061992E-4
2                        0.0047272727272727275    3.05832020280049E-5      6.39254952610006E-4
2                        0.004787878787878788     2.7500482273660034E-5    5.723808953321801E-4
2                        0.0048484848484848485    2.4741209714543615E-5    5.130795794008129E-4
2                        0.00490909090909091      2.2265105908087318E-5    4.602726173862271E-4
2                        0.00496969696969697      2.0040682532653288E-5    4.1314742655769053E-4
2                        0.005030303030303031     1.8036977730272838E-5    3.7090393143668837E-4
2                        0.005090909090909091     1.62283121493312E-5      3.328982347164187E-4
2                        0.005151515151515152     1.4600178120399121E-5    2.9880233479198355E-4
2                        0.005212121212121212     1.3136840537463586E-5    2.682629130647588E-4
2                        0.0052727272727272735    1.182938660490827E-5     2.4112285580354058E-4
2                        0.005333333333333334     1.065132608645439E-5     2.1672089493681956E-4
2                        0.0053939393939393945    9.59209869463241E-6      1.9485668489980414E-4
2                        0.005454545454545455     8.645995682686205E-6     1.7547172331121072E-4
2                        0.0055151515151515155    7.798098275822317E-6     1.5818885192489169E-4
2                        0.005575757575757576     7.033470424634123E-6     1.426169817275262E-4
2                        0.005636363636363637     6.346592020119504E-6     1.2868298454906817E-4
2                        0.005696969696969698     5.728798679233864E-6     1.1618968728563149E-4
2                        0.005757575757575758     5.170925776549357E-6     1.0490878831498572E-4
2                        0.005818181818181819     4.666899933291777E-6     9.470767058988036E-5
2                        0.005878787878787879     4.210853785447837E-6     8.545109077077208E-5
2                        0.00593939393939394      3.7983601474547253E-6    7.707923841425839E-5
2                        0.006                    3.425396147749183E-6     6.949539315859647E-5
3                        0                        1.7456689184328918E-6    4.26020182032781E-4
3                        6.060606060606061E-5     0.007225341652272799     1.5186172630078736
3                        1.2121212121212122E-4    0.011273489071507553     2.2791238582158795
3                        1.8181818181818183E-4    0.013504581878946351     2.668525610821393
3                        2.4242424242424245E-4    0.014771587891670473     2.8766871073108904
3                        3.0303030303030303E-4    0.015518924408528333     2.9907158250014128
3                        3.6363636363636367E-4    0.015975372178427465     3.0543974882975116
3                        4.242424242424243E-4     0.01626525104384241      3.090958788874023
3                        4.848484848484849E-4     0.016442111682970516     3.1096413391699476
3                        5.454545454545455E-4     0.016567339898641495     3.1213412991156
3                        6.060606060606061E-4     0.01665542394235828      3.1282558192299996
3                        6.666666666666668E-4     0.016722006348204685     3.1327019178684146
3                        7.272727272727273E-4     0.016774427996367917     3.135777789835999
3                        7.878787878787879E-4     0.016806833624506808     3.13694426147492
3                        8.484848484848486E-4     0.016827517816166405     3.137226298537303
3                        9.090909090909092E-4     0.01684820200782601      3.1375083355996853
3                        9.696969696969698E-4     0.016861565329709612     3.137757460132863
3                        0.0010303030303030305    0.01687425149843472      3.138003540379803
3                        0.001090909090909091     0.016886937667159832     3.138249620626743
3                        0.0011515151515151516    0.01689962383588494      3.138495700873683
3                        0.0012121212121212121    0.01691209251995194      3.138738079529455
3                        0.0012727272727272728    0.016920082859691564     3.138904236717685
3                        0.0013333333333333335    0.01692807319943119      3.1390703939059152
3                        0.001393939393939394     0.016936063539170817     3.1392365510941453
3                        0.0014545454545454547    0.016944053878910438     3.1394027082823754
3                        0.0015151515151515154    0.016951306619760714     3.1395532240235604
3                        0.0015757575757575758    0.016955136642962033     3.139631157962318
3                        0.0016363636363636365    0.016958966666163356     3.1397090919010755
3                        0.0016969696969696972    0.01696279668936468      3.1397870258398335
3                        0.0017575757575757577    0.016966626712566005     3.139864959778591
3                        0.0018181818181818184    0.016970456735767317     3.1399428937173486
3                        0.0018787878787878789    0.016974286758968636     3.140020827656106
3                        0.0019393939393939396    0.016978116782169962     3.140098761594864
3                        0.002                    0.01698194680537128      3.1401766955336217
3                        0.002060606060606061     0.016985776828572607     3.140254629472379
3                        0.0021212121212121214    0.01698876005884946      3.1403146526637777
3                        0.002181818181818182     0.016990662279522784     3.1403518111271627
3                        0.002242424242424243     0.016992564500196115     3.140388969590547
3                        0.0023030303030303033    0.016994466720869447     3.140426128053932
3                        0.0023636363636363638    0.01699636894154278      3.140463286517317
3                        0.0024242424242424242    0.01699827116221611      3.140500444980702
3                        0.002484848484848485     0.017000173382889436     3.140537603444087
3                        0.0025454545454545456    0.01700207560356276      3.1405747619074713
3                        0.002606060606060606     0.017003977824236093     3.1406119203708562
3                        0.002666666666666667     0.01700588004490942      3.140649078834241
3                        0.0027272727272727275    0.017007514497756032     3.14068066744872
3                        0.002787878787878788     0.01700903485410142      3.140709882737469
3                        0.002848484848484849     0.01701051727271169      3.1407383182521107
3                        0.0029090909090909093    0.017011869920248737     3.140764086445613
3                        0.00296969696969697      0.01701312980014697      3.140787961987705
3                        0.0030303030303030307    0.012844027633215016     2.240079398339283
3                        0.003090909090909091     0.007388934746118767     1.1609704121333795
3                        0.0031515151515151517    0.004336821810703508     0.60606353991156
3                        0.0032121212121212126    0.0026557688434739124    0.32291398974639546
3                        0.003272727272727273     0.0017189563338189926    0.1775883896341707
3                        0.0033333333333333335    0.0011825093460720356    0.10218543173174335
3                        0.0033939393939393945    8.552480653520172E-4     0.06091599953469667
3                        0.003454545454545455     6.463286000102095E-4     0.037736441792982904
3                        0.0035151515151515154    5.068112960715513E-4     0.024368138891796107
3                        0.003575757575757576     4.0996436765882035E-4    0.01651900071592399
3                        0.003636363636363637     3.397174947559064E-4     0.011738865596828968
3                        0.0036969696969696973    2.871864114911031E-4     0.00877864116142822
3                        0.0037575757575757577    2.4642862641043224E-4    0.006852437357947985
3                        0.0038181818181818187    2.1375023681756205E-4    0.005519077151711624
3                        0.003878787878787879     1.8689541485868502E-4    0.004544422808389496
3                        0.00393939393939394      1.6441643633516518E-4    0.0038015740398288887
3                        0.004                    1.4541914954241012E-4    0.003226382277332265
3                        0.0040606060606060606    1.292752946020251E-4     0.002779545826147144
3                        0.004121212121212122     1.1538903868785189E-4    0.0024209321609442815
3                        0.004181818181818182     1.031771829699401E-4     0.002116199876629632
3                        0.004242424242424243     9.248781969845137E-5     0.0018598936103796935
3                        0.004303030303030303     8.3097789570906E-5       0.0016432434587388264
3                        0.004363636363636364     7.481441341565268E-5     0.0014584296885035437
3                        0.004424242424242424     6.746423957422533E-5     0.0012989465008214009
3                        0.004484848484848486     6.0938844579637474E-5    0.0011610247208201424
3                        0.004545454545454546     5.514526781858976E-5     0.001041564163151145
3                        0.004606060606060607     4.997971215989291E-5     9.373305792569255E-4
3                        0.004666666666666667     4.536485142141309E-5     8.459075130236386E-4
3                        0.0047272727272727275    4.122056648889658E-5     7.649589992101806E-4
3                        0.004787878787878788     3.746393856682867E-5     6.919199584488074E-4
3                        0.0048484848484848485    3.407607631069712E-5     6.267809917736803E-4
3                        0.00490909090909091      3.0979852783627815E-5    5.67239706902784E-4
3                        0.00496969696969697      2.817866184425216E-5     5.13848584179218E-4
3                        0.005030303030303031     2.5627910391257237E-5    4.6550420476367975E-4
3                        0.005090909090909091     2.331513623056813E-5     4.2201303631310796E-4
3                        0.005151515151515152     2.1220911404098805E-5    3.8301358843744577E-4
3                        0.005212121212121212     1.9323603693877838E-5    3.4798849691301733E-4
3                        0.0052727272727272735    1.760604441432577E-5     3.1652240821225015E-4
3                        0.005333333333333334     1.605065236634273E-5     2.882320757530495E-4
3                        0.0053939393939393945    1.4644580417082627E-5    2.627988240848042E-4
3                        0.005454545454545455     1.3369808303013959E-5    2.3981794731589638E-4
3                        0.0055151515151515155    1.2209961251026498E-5    2.1891210446683306E-4
3                        0.005575757575757576     1.1152411357441668E-5    1.9982111248149218E-4
3                        0.005636363636363637     1.0201397047322628E-5    1.8281216831693894E-4
3                        0.005696969696969698     9.33433599642471E-6      1.6731383194288634E-4
3                        0.005757575757575758     8.538652676027972E-6     1.530675579747414E-4
3                        0.005818181818181819     7.801771557412509E-6     1.3981480102791136E-4
3                        0.005878787878787879     7.139915436926266E-6     1.279627178291482E-4
3                        0.00593939393939394      6.534117737190315E-6     1.1710502750660475E-4
3                        0.006                    5.973437538436172E-6     1.0702097029786014E-4
4                        0                        1.7451920111713905E-6    4.2605364863282916E-4
4                        6.060606060606061E-5     0.007068359145655935     1.5272487046152279
4                        1.2121212121212122E-4    0.011007723474839581     2.2898758160534816
4                        1.8181818181818183E-4    0.013186491301875838     2.6770266015700424
4                        2.4242424242424245E-4    0.014435078136331232     2.8820728818924244
4                        3.0303030303030303E-4    0.015181931381393482     2.9937896085942444
4                        3.6363636363636367E-4    0.015646305924623186     3.055856206422807
4                        4.242424242424243E-4     0.015948801146003624     3.0915088426615767
4                        4.848484848484849E-4     0.016140391053700093     3.1094839846258324
4                        5.454545454545455E-4     0.016281027894262095     3.1207490728119844
4                        6.060606060606061E-4     0.016384177080869426     3.1273544257882224
4                        6.666666666666668E-4     0.016465136794441823     3.1315640979758537
4                        7.272727272727273E-4     0.0165315515266251       3.1345154059327465