% Model:              FEA.mph
% Version:            COMSOL 6.0.0.318
% Date:               Jul 31 2022, 09:02
% Dimension:          3
% Nodes:              100
% Expressions:        6
% Description:        Magnetic flux density, x component, Magnetic flux density, y component, Magnetic flux density, z component
% Length unit:        m
% x                       y                        z                        mf.Bx (T) @ freq=2000, Switch 1=Titanium beta-21S mf.By (T) @ freq=2000, Switch 1=Titanium beta-21S mf.Bz (T) @ freq=2000, Switch 1=Titanium beta-21S mf.Bx (T) @ freq=2000, Switch 1=Air               mf.By (T) @ freq=2000, Switch 1=Air               mf.Bz (T) @ freq=2000, Switch 1=Air
-0.03                     0                        0.0015                   2.652614944717246E-5+5.816692339234542E-6i        5.222074318464182E-8+6.45286784486124E-9i         -7.155640899591414E-5+3.1303983038316E-6i         2.5803031170333645E-5-1.1408251195114773E-10i     5.199479083715193E-8-2.2000030132103697E-13i      -7.174442222092911E-5+3.065569427272569E-10i
-0.029393939393939392     0                        0.0015                   2.9897362869490507E-5+6.3369610814256775E-6i      -1.1864092715638762E-7-9.520171561947578E-9i      -7.755573272721542E-5+2.992283258947935E-6i       2.913505598163986E-5-1.2845582073589901E-10i      -1.1820515749131125E-7+5.070905248663068E-13i     -7.770739446223083E-5+3.312487532765937E-10i
-0.028787878787878786     0                        0.0015                   3.366057568388537E-5+6.889414527436134E-6i        1.7288766581762492E-8+4.302813085322521E-9i       -8.522137276457408E-5+2.782517946644629E-6i       3.285920926382749E-5-1.4452742743849528E-10i      1.6696352539922186E-8-7.019004236704646E-14i      -8.53303052272803E-5+3.628761050112295E-10i
-0.02818181818181818      0                        0.0015                   3.742378849827918E-5+7.4418679734466655E-6i       1.5321846031987364E-7+1.8125797732593255E-8i      -9.288701280193182E-5+2.572752634341172E-6i       3.658336254601414E-5-1.6059903414108433E-10i      1.515978625711065E-7-6.4747060960055E-13i         -9.295321599232944E-5+3.9450345674586133E-10i
-0.027575757575757573     0                        0.0015                   4.3189227888914454E-5+8.100986020920586E-6i       1.884054260177688E-7+1.433048514137272E-9i        -1.0269124919984823E-4+2.2601507084247306E-6i     4.231044978580153E-5-1.8519604879959066E-10i      1.8895913494196628E-7-8.642270214892489E-13i      -1.0270888672246883E-4+4.3497419090984217E-10i
-0.02696969696969697      0                        0.0015                   4.927976301062316E-5+8.773096989994438E-6i        1.1429648784258388E-7+3.934423630939715E-9i       -1.1113284174553596E-4+2.0239293479280246E-6i     4.8362686448898736E-5-2.111987030049667E-10i      1.1455378257974914E-7-5.02717482010379E-13i       -1.1110201110902599E-4+4.694526058029138E-10i
-0.026363636363636363     0                        0.0015                   5.6320076809500495E-5+9.487893030656232E-6i       5.34152657401428E-7+3.549793512472787E-8i         -1.2232776113555886E-4+1.6692613828148069E-6i     5.536288590278016E-5-2.4122364721978273E-10i      5.316054634023001E-7-2.2867235220695646E-12i      -1.222445196919226E-4+5.15526671007451E-10i
-0.025757575757575757     0                        0.0015                   6.639601417512096E-5+1.0327010513980336E-5i       9.868696585922307E-8-1.882284445984487E-9i        -1.3570122269680523E-4+1.2328423517555046E-6i     6.539608447205013E-5-2.841308404019361E-10i       9.884585646128749E-8-4.2550173366135563E-13i      -1.35561184845415E-4+5.706209578589071E-10i
-0.02515151515151515      0                        0.0015                   7.64719515407436E-5+1.1166127997304224E-5i        -3.36778725682765E-7-3.926250401666974E-8i        -1.490746842580529E-4+7.964233206963784E-7i       7.54292830413227E-5-3.2703803358410437E-10i       -3.339137504810262E-7+1.4357200547468534E-12i     -1.4887784999891018E-4+6.257152447103697E-10i
-0.024545454545454544     0                        0.0015                   8.907334418759147E-5+1.205879144711543E-5i        8.755071606392304E-7+2.1006304379956415E-8i       -1.6789349664119314E-4+3.9623650676529065E-8i     8.7993392713215E-5-3.808371956827273E-10i         8.74795338545991E-7-3.7559781604006476E-12i       -1.6761916297389646E-4+7.031884433955065E-10i
-0.023939393939393937     0                        0.0015                   1.0546549326828305E-4+1.3062317048935674E-5i      2.4782651979969573E-6+4.4695145421404226E-8i      -1.8291394441232096E-4-5.51756049493321E-7i       1.043452148741237E-4-4.506843611652058E-10i       2.4776469019293463E-6-1.0460249220622217E-11i     -1.8256872860732349E-4+7.645120272949254E-10i
-0.02333333333333333      0                        0.0015                   1.2838038234200911E-4+1.4139968252516482E-5i      1.4482140378601661E-7+8.089232683810421E-9i       -2.0841421230920578E-4-1.4357434471125497E-6i     1.2722196635170602E-4-5.482773714960665E-10i      1.4567000135361175E-7-6.007716499102649E-13i      -2.079885857539783E-4+8.697874910378606E-10i
-0.022727272727272728     0                        0.0015                   1.5129527141573382E-4+1.5217619456097366E-5i      -2.188622390425195E-6-2.851668005379016E-8i       -2.3391448020609125E-4-2.3197308447317074E-6i     1.5009871782928742E-4-6.458703818269223E-10i      -2.186306899223207E-6+9.258705920803342E-12i      -2.334084429006331E-4+9.750629547808106E-10i
-0.022121212121212118     0                        0.0015                   1.8298713684451235E-4+1.6275037676304658E-5i      -6.613669126380754E-7-2.7976160773448134E-8i      -2.636084131655555E-4-3.465316578891399E-6i       1.8176067678634108E-4-7.810556286446426E-10i      -6.568535150090239E-7+2.788927774526927E-12i      -2.630093701658712E-4+1.0971301617760403E-9i
-0.021515151515151515     0                        0.0015                   2.2134296248553867E-4+1.7421959262556075E-5i      1.1170440608246194E-6+9.13828230952418E-8i        -3.0322450582986345E-4-4.723696867174279E-6i      2.200858067360488E-4-9.446592640494614E-10i       1.1104622864204828E-6-4.7040395911917474E-12i     -3.025323057747809E-4+1.2608150934187807E-9i
-0.02090909090909091      0                        0.0015                   2.8289957733407636E-4+1.8773767259617336E-5i      -2.5114921997984596E-8+1.4843285640295549E-8i     -3.430115177696716E-4-6.3889064203907515E-6i      2.8161410152735436E-4-1.206970896923364E-9i       -2.846269451422037E-8+7.54024802820887E-14i       -3.4221375872332056E-4+1.4241201054825807E-9i
-0.020303030303030302     0                        0.0015                   3.624130857686437E-4+2.0022837975818854E-5i       7.48279880330785E-7-9.147737883895626E-8i         -3.952762476043441E-4-8.142845900783445E-6i       3.61111006761952E-4-1.5457655377559716E-9i        7.498321635580896E-7-3.504068580676328E-12i       -3.9437284392768754E-4+1.639442052419405E-9i
-0.019696969696969695     0                        0.0015                   4.618698695790413E-4+2.112560721446395E-5i        7.833260831056899E-6+1.1954708697236693E-7i       -4.4884758714529077E-4-1.0147779142191062E-5i     4.605638880144712E-4-1.9705040546100726E-9i       7.824710497947394E-6-3.323183162617751E-11i       -4.478174456117915E-4+1.8585301258822922E-9i
-0.01909090909090909      0                        0.0015                   6.23752263862784E-4+2.2244844715028E-5i           8.078642451496421E-7+4.98772557161074E-8i         -5.193009043314009E-4-1.2589027378475271E-5i      6.22437115972747E-4-2.6633379571361663E-9i        8.064863668668168E-7-3.4787644343212178E-12i      -5.181562765507785E-4+2.143014769915593E-9i
-0.018484848484848486     0                        0.0015                   8.487804167319205E-4+2.325365611724991E-5i        2.8990769261749304E-6-9.911646635986517E-8i       -5.839255511966336E-4-1.524995777211622E-5i       8.474770247086431E-4-3.6199395561838344E-9i       2.9053057300926504E-6-1.0497487171850979E-11i     -5.826537279638622E-4+2.3998508384094373E-9i
-0.017878787878787876     0                        0.0015                   0.0010984323520271022+2.4608853259389968E-5i      1.4425984316027664E-5+7.175336291909037E-8i       -6.582953906142134E-4-1.835895917522456E-5i       0.0010971245043606736-4.674750440793362E-9i       1.442533637797113E-5-5.866841930739434E-11i       -6.568894305209844E-4+2.6874752289949648E-9i
-0.017272727272727273     0                        0.0015                   0.0015587575971766302+2.4942091848396774E-5i      -4.474253959076829E-6-6.7376713873933125E-9i      -6.789293492417778E-4-2.1544718815694598E-5i      0.0015575013437549665-6.594278272309871E-9i       -4.47939791263334E-6+1.937745801476182E-11i       -6.773974122507402E-4+2.7258617863422618E-9i
-0.016666666666666666     0                        0.0015                   0.002207479711913287+2.5300699620639625E-5i       -6.3069320530616604E-6+7.526794019334978E-8i      -6.696513984723543E-4-2.5189464119104005E-5i      0.002206244938322874-9.322247326301673E-9i        -6.303111402353526E-6+2.0096434176014687E-11i     -6.67968034528075E-4+2.6034070394113674E-9i
-0.01606060606060606      0                        0.0015                   0.0032975400391100874+2.518874814995734E-5i       -1.316529107301713E-6-3.7279408978775684E-8i      -2.0904562899845547E-4-2.897276152087817E-5i      0.003296348589345171-1.3703143653435E-8i          -1.3006144148762673E-6+3.303071506142459E-12i     -2.0725176826036015E-4+6.901015155670321E-10i
-0.015454545454545453     0                        0.0015                   0.004168708946288567+2.446521976358758E-5i        1.17182609883894E-5-1.949593032302855E-8i         7.942742122864408E-4-3.30671968327687E-5i         0.004167607620406872-1.737552866172858E-8i        1.1724537838507304E-5-4.858815086924478E-11i      7.962107065231615E-4-3.391393768036651E-9i
-0.014848484848484847     0                        0.0015                   0.004635628490585311+2.322234877661855E-5i        8.601538098112734E-6+5.246050274839596E-8i        0.0022112281030364396-3.726867386763877E-5i       0.004634620121009576-1.9424648772070065E-8i       8.592359253535478E-6-3.437020717838318E-11i       0.002213280850553164-9.309214811874836E-9i
-0.01424242424242424      0                        0.0015                   0.004363047752584202+2.117261569039677E-5i        -1.1048492659301856E-7-3.065549986732872E-8i      0.003926407132730032-4.092274591255599E-5i        0.004362142147661636-1.8291821516086006E-8i       -1.0701726276506063E-7-2.1392170701295733E-13i    0.003928570621493467-1.653597095441406E-8i
-0.013636363636363634     0                        0.0015                   0.0035418864708427686+1.853395839969446E-5i       4.3195952743472E-5-4.424307009526251E-8i          0.0049887062634426035-4.468400788935824E-5i       0.0035410817455930723-1.4902859173743646E-8i      4.3198246119008354E-5-1.716616538546537E-10i      0.004990963785115002-2.0949153857731996E-8i
-0.013030303030303031     0                        0.0015                   0.0025019742247749804+1.5094523958758625E-5i      -5.675052887061521E-5+1.5454011588044575E-7i      0.005340640338405443-4.7532179386394375E-5i       0.0025013285405590772-1.0665663716046495E-8i      -5.679930051367271E-5+2.2660162035332296E-10i     0.005342923316759628-2.2532347149372776E-8i
-0.012424242424242424     0                        0.0015                   0.0017664376712489688+1.1251934881680552E-5i      2.9461842801095997E-6+2.7337748846267086E-8i      0.005466992712507378-5.005104216036439E-5i        0.0017659592877233704-7.5789091074176E-9i         2.931471513152161E-6-9.21782615105721E-12i        0.005469359412396863-2.3179374741828814E-8i
-0.011818181818181818     0                        0.0015                   0.0011943805008474946+6.778791047839214E-6i       1.0925846206199033E-5+7.77423781477991E-8i        0.005411431814149346-5.173579316978795E-5i        0.0011940573727683814-5.13951141401566E-9i        1.0911853156150494E-5-4.274063595609447E-11i      0.005413859980847487-2.3027163431563572E-8i
-0.011212121212121211     0                        0.0015                   7.800526406319657E-4+2.399701918979861E-6i        5.435491255126237E-6+2.630293765553577E-8i        0.005420512968711931-5.241057613507379E-5i        7.798744364166483E-4-3.3520843629063556E-9i       5.437674514399693E-6-2.291319998502148E-11i       0.005422925425388108-2.309917462247353E-8i
-0.010606060606060605     0                        0.0015                   3.783554731356702E-4-2.4895158326185614E-6i       3.109769699532355E-8+1.5880405784158787E-7i       0.0053893242891965044-5.194278028811554E-5i       3.7832490924161904E-4-1.625450111149656E-9i       4.4513906163271954E-8+1.3073440883170253E-12i     0.00539168921760453-2.2985629885483944E-8i
-0.009999999999999998     0                        0.0015                   -4.05213535533311E-6-7.910422834455285E-6i        3.584831209878757E-6+9.030642738321753E-8i        0.005368019341222447-5.120389748405957E-5i        -3.898204901720383E-6+1.5340138298630384E-11i     3.6199176341023378E-6-1.3025994603519874E-11i     0.005370328164311622-2.291084726951908E-8i
-0.009393939393939392     0                        0.0015                   -3.765430035968659E-4-1.2660909598712246E-5i      -4.382551597294465E-6+2.4584504098856977E-7i      0.005401251538061024-4.768193876344028E-5i        -3.7626764395366774E-4+1.6168505791435822E-9i     -4.381813341472972E-6+2.1300232709702766E-11i     0.005403442374597068-2.3035525340049754E-8i
-0.008787878787878785     0                        0.0015                   -7.594709292470248E-4-1.727556942721778E-5i       -2.8972883060946245E-6+1.6297133505352894E-7i     0.005414860915916329-4.36505882105771E-5i         -7.590683667519425E-4+3.2663871687239225E-9i      -2.8914088538431254E-6+1.4430942880534754E-11i    0.005416918368402122-2.307468610435679E-8i
-0.008181818181818179     0                        0.0015                   -0.00120100158270565-2.0694013826628924E-5i       8.23616293563358E-7-4.9924673743614007E-8i        0.0054408156467847975-3.844505982080559E-5i       -0.0012004774955252965+5.168151075448003E-9i      8.445484963536497E-7-3.164097905675967E-12i       0.005442691744036665-2.314441338449221E-8i
-0.007575757575757576     0                        0.0015                   -0.0017698190911402609-2.3100822219645524E-5i     2.01330903568794E-5-1.986587090643181E-7i         0.005449281194702428-3.2198304874804106E-5i       -0.001769205303314196+7.58838141790588E-9i        2.011865105182916E-5-8.191252922813304E-11i       0.005450934577626769-2.311283477603529E-8i
-0.0069696969696969695    0                        0.0015                   -0.002478590144207902-2.3985412002234678E-5i      -5.059561026688614E-7-6.252430495393179E-8i       0.005346453837725435-2.5050760494931527E-5i       -0.0024779716906634178+1.0564407225437642E-8i     -4.6234552962716446E-7+8.050723503202632E-13i     0.005348005114119746-2.2571339315983506E-8i
-0.006363636363636363     0                        0.0015                   -0.003574108287303897-2.2960317421011957E-5i      5.013586562049735E-5+2.691596760308343E-7i        0.004873783506456376-1.9510881857859015E-5i       -0.003573670372880604+1.5034581039339642E-8i      5.011063979173643E-5-1.9268831015718603E-10i      0.004875203650780573-2.0476344425051596E-8i
-0.0057575757575757565    0                        0.0015                   -0.004320679206994124-1.889712979727615E-5i       -6.289675044872031E-5-2.8287153122099305E-7i      0.0038787738942027278-1.3587704119638264E-5i      -0.004320292459019839+1.810881528998272E-8i       -6.296582528454026E-5+2.7029135532702445E-10i     0.0038799853946748022-1.6339443602856686E-8i
-0.00515151515151515      0                        0.0015                   -0.004594492646275594-1.5172990786906765E-5i      -1.0995396826446457E-5-6.805651595254885E-9i      0.0022807201791585907-1.070784237154111E-5i       -0.004594109360818489+1.9262206130320416E-8i      -1.1008200723899159E-5+4.75557985826712E-11i      0.0022818624729991147-9.589714200664881E-9i
-0.0045454545454545435    0                        0.0015                   -0.004128016637593639-1.1744144029090109E-5i      5.506550829510043E-5-4.5271054129123866E-8i       7.929006452133949E-4-9.70450458477037E-6i         -0.004127747685544082+1.7191115363095812E-8i      5.504177302902147E-5-2.2184416872618724E-10i      7.940327394583436E-4-3.38766079317819E-9i
-0.003939393939393937     0                        0.0015                   -0.003264882485151454-8.858557757920866E-6i       -6.32954703549452E-5+4.900278073549332E-8i        -2.403167064906342E-4-9.385556738886539E-6i       -0.003264680461386473+1.3587883511640142E-8i      -6.330839852873766E-5+2.5047346503238897E-10i     -2.3918466222289103E-4+8.212205225446392E-10i
-0.003333333333333334     0                        0.0015                   -0.002194050960171296-6.884305576118903E-6i       -1.2054930881549852E-5+7.152383240275413E-8i      -6.118659023363754E-4-9.702111050220556E-6i       -0.0021938608156074684+9.302260071863618E-9i      -1.2061423144148903E-5+5.586452961721056E-11i     -6.107540865361583E-4+2.3495731924369296E-9i
-0.0027272727272727275    0                        0.0015                   -0.001519505072940023-5.583123359644471E-6i       2.8447007482403606E-6+5.916622810754618E-8i       -7.59266445802001E-4-1.0297179620304375E-5i       -0.0015193458763519494+6.457940936723904E-9i      2.8627635422421964E-6-1.122087721367569E-11i      -7.5813910117822E-4+3.060812804441361E-9i
-0.002121212121212121     0                        0.0015                   -0.0010641128742179162-4.4459315157596955E-6i     7.294531833100049E-6-2.5414343527908035E-8i       -6.620189710511659E-4-1.0801651577096464E-5i      -0.0010639663720451349+4.5377435879963206E-9i     7.320071577278939E-6-3.026439034082506E-11i       -6.608660384601503E-4+2.704858385911495E-9i
-0.0015151515151515145    0                        0.0015                   -7.896386708518104E-4-3.7395609787227023E-6i      1.2802248184388965E-5+3.330227656993582E-8i       -5.759751483055868E-4-1.131574908808393E-5i       -7.895016935421393E-4+3.371542441590643E-9i       1.2800254499985633E-5-5.58429502286718E-11i       -5.748004034933267E-4+2.3683010941536894E-9i
-9.09090909090908E-4      0                        0.0015                   -6.049604761391384E-4-3.3154461531996894E-6i      -5.172815767564079E-6-4.560073158400152E-8i       -5.102559638817668E-4-1.192852284035378E-5i       -6.048362457556321E-4+2.5860741725140634E-9i      -5.173774610138428E-6+2.2256224104677406E-11i     -5.090605438861522E-4+2.106207147297414E-9i
-3.030303030303015E-4     0                        0.0015                   -4.442448309041012E-4-2.9526681970715792E-6i      2.5225883090727805E-6-8.647185826292781E-8i       -4.5105771729944016E-4-1.2570519678324443E-5i     -4.441281762960055E-4+1.900561269986483E-9i       2.5198945383991385E-6-1.057590309326489E-11i      -4.4983347447755513E-4+1.8664191457414943E-9i
3.03030303030305E-4       0                        0.0015                   -3.523895189062265E-4-2.8556192687762E-6i         4.637849492913557E-6+1.2426293397906074E-8i       -3.9756651182476337E-4-1.3116129120277094E-5i     -3.5226511504440086E-4+1.5087328945238374E-9i     4.6323167285779E-6-1.9759505547809986E-11i        -3.9631827046999503E-4+1.647637539592442E-9i
9.090909090909115E-4      0                        0.0015                   -2.8407419690132895E-4-2.8693919204525624E-6i     -2.279077977460409E-6+1.2077311210933888E-9i      -3.4630863226654785E-4-1.3712688396570733E-5i     -2.8393835734278255E-4+1.2170771977872284E-9i     -2.2817641970719702E-6+9.701552462083402E-12i     -3.4503054961321927E-4+1.4361522461131434E-9i
0.001515151515151518      0                        0.0015                   -2.2671267168636295E-4-2.9914207968706193E-6i     -5.660685223118965E-7-1.5086627667581346E-9i      -3.005870551980943E-4-1.4204722687134221E-5i      -2.2655903544610854E-4+9.724133338458713E-10i     -5.678570103797526E-7+2.3589510298358884E-12i     -2.992790179332852E-4+1.24643666460402E-9i
0.002121212121212121      0                        0.0015                   -1.693511464713969E-4-3.1134496732887254E-6i      1.1469409328372283E-6-4.225056654628015E-9i       -2.548654781296454E-4-1.4696756977697589E-5i      -1.691797135494343E-4+7.277494699045108E-10i      1.1460501763119695E-6-4.983650402414688E-12i      -2.535274862533549E-4+1.0567210830949257E-9i
0.002727272727272731      0                        0.0015                   -1.5556446169425267E-4-3.81734410603038E-6i       9.788400429410274E-7+5.3603754506317824E-8i       -2.2772064832234096E-4-1.5151431002342463E-5i     -1.5533415524219066E-4+6.683042336996665E-10i     9.812773357018717E-7-4.0940443607646044E-12i      -2.263629575488344E-4+9.450518666633983E-10i
0.003333333333333334      0                        0.0015                   -1.263961429699411E-4-4.1491446184185966E-6i      -7.773663593241536E-7-1.4757270983228703E-8i      -2.1093521765929693E-4-1.609519300252193E-5i      -1.261450669502646E-4+5.437466023800501E-10i      -7.744777937635275E-7+3.2452321902791503E-12i     -2.0950975684219615E-4+8.760240359835917E-10i
0.003939393939393937      0                        0.0015                   -1.071571095968009E-4-5.168559633798557E-6i       -2.4096997942078347E-7-2.4246538109598927E-8i     -1.8784035370431447E-4-1.6588059692159833E-5i     -1.0683756426858843E-4+4.613927970090583E-10i     -2.3866324225587193E-7+1.0005617537103826E-12i    -1.8637781607815408E-4+7.802011694540888E-10i
0.004545454545454547      0                        0.0015                   -8.791807622365286E-5-6.187974649178808E-6i       2.9542640048098746E-7-3.373580523591854E-8i       -1.6474548974933678E-4-1.7080926381797677E-5i     -8.753006158690566E-5+3.7903899163804696E-10i     2.971513092507876E-7-1.2441086828465978E-12i      -1.6324587531411238E-4+6.843783029245901E-10i
0.00515151515151515       0                        0.0015                   -7.560781396674524E-5-7.462558373008967E-6i       7.553575157590378E-8+8.368231817298293E-8i        -1.5122830735049612E-4-1.6731515790032544E-5i     -7.51346673992829E-5+3.2593944259384546E-10i      7.074465207439554E-8-2.8565252948860183E-13i      -1.49731531856223E-4+6.2882634845914E-10i
0.00575757575757576       0                        0.0015                   -6.534275052127742E-5-9.251741123916763E-6i       -5.228137144519182E-8+1.4051810784717473E-8i      -1.3629008799976357E-4-1.708109250689297E-5i      -6.475111107827813E-5+2.8150347665654393E-10i     -5.27811568758977E-8+2.2862395933615265E-13i      -1.3476010167319964E-4+5.668327090298334E-10i
0.006363636363636363      0                        0.0015                   -5.605815841602167E-5-1.1001292279418264E-5i      -8.730102377551457E-8+2.419102692140495E-8i       -1.23197815611179E-4-1.590759125491298E-5i        -5.5341107035795237E-5+2.412486635180442E-10i     -8.929935605888142E-8+3.932118983896029E-13i      -1.2172068238867395E-4+5.129065606671152E-10i
0.006969696969696973      0                        0.0015                   -5.052363453309037E-5-1.1265877237559552E-5i      3.812803158875083E-8+1.5751152702782648E-7i       -1.119636948438878E-4-1.4428935595890344E-5i      -4.9763580356059845E-5+2.1728863996500853E-10i    2.6377106960434604E-8-1.3567129589661983E-13i     -1.1054916377142019E-4+4.666912387364108E-10i
0.007575757575757576      0                        0.0015                   -4.346952472682262E-5-1.2046054455909508E-5i      1.013370610060231E-7+2.208767426832155E-8i        -1.0224334303265712E-4-1.2578270744065687E-5i     -4.2621723398070515E-5+1.8666425665936266E-10i    9.998772805073076E-8-4.4352689628956914E-13i      -1.0092847951995455E-4+4.26882954105974E-10i
0.008181818181818186      0                        0.0015                   -3.909962367942138E-5-1.2243766581239836E-5i      1.5026981860471848E-7-1.8439254385955637E-8i      -9.345905307121577E-5-1.0799049233151111E-5i      -3.820833392110428E-5+1.67662383145167E-10i       1.511619188030648E-7-6.455956276885489E-13i       -9.2246579796577E-5+3.9093071877148554E-10i
0.008787878787878789      0                        0.0015                   -3.381267208025764E-5-1.228294803345879E-5i       5.3174095224640255E-9-8.275953180903264E-8i       -8.616069556142205E-5-9.261424989479203E-6i       -3.287846658698758E-5+1.4478022303322916E-10i     1.0639942947857604E-8-3.4909198660305714E-14i     -8.504955965954662E-5+3.6126774742126303E-10i
0.009393939393939392      0                        0.0015                   -3.0170624039644114E-5-1.175261242261298E-5i      -1.1959417720031063E-7-9.439627806278944E-9i      -7.824499361315057E-5-7.875144384689207E-6i       -2.923286618074965E-5+1.2908495516355675E-10i     -1.1875302573976024E-7+5.367440000717707E-13i     -7.722259714797372E-5+3.286434687524289E-10i
0.010000000000000002      0                        0.0015                   -2.7422480952383614E-5-1.1303472033360387E-5i     1.0934172368703499E-7+2.8545151583262454E-8i      -7.19055292654831E-5-6.657636368494662E-6i        -2.6484151284175196E-5+1.1719930763866632E-10i    1.0887528925293544E-7-4.696812389431813E-13i      -7.097351308689876E-5+3.0271156146604705E-10i
0.010606060606060605      0                        0.0015                   -2.437498373027391E-5-1.0740919514270319E-5i      -3.299532356650201E-8+8.977410000927759E-10i      -6.639668703978969E-5-5.673486280326135E-6i       -2.344074869514224E-5+1.0405204418271596E-10i     -3.33614685834498E-8+1.567771429717808E-13i       -6.554553735022654E-5+2.801521755692153E-10i
0.011212121212121215      0                        0.0015                   -2.1327486508162333E-5-1.0178366995180466E-5i     -1.7533237082168564E-7-2.6749669583039633E-8i     -6.088784481409676E-5-4.689336192157567E-6i       -2.0397346106107273E-5+9.090478072676187E-11i     -1.7559822642023484E-7+7.832355248890177E-13i     -6.0117561613553806E-5+2.5759278967238215E-10i
0.011818181818181818      0                        0.0015                   -2.0074452925119147E-5-9.744823049173808E-6i      3.327853874656979E-9+2.0951194775352866E-10i      -5.646467692119731E-5-3.927462262966944E-6i       -1.9160121396732645E-5+8.548903877589227E-11i     3.2343858322419865E-9-2.4204597183237633E-14i     -5.5768233777955475E-5+2.394335963129099E-10i
0.012424242424242428      0                        0.0015                   -1.7973732196597717E-5-9.208812539405433E-6i      3.081868863162346E-7+5.469407729302521E-8i        -5.243013359397807E-5-3.2753968867022733E-6i      -1.707200840299381E-5+7.640477848763535E-11i      3.059995507218122E-7-1.3103276531920189E-12i      -5.1803265816204245E-5+2.2298562532719194E-10i
0.013030303030303031      0                        0.0015                   -1.666994946825841E-5-8.72340194540089E-6i        1.3746526036773738E-7+2.539994693534568E-8i       -4.859701080806825E-5-2.7508956282547325E-6i      -1.5789320325126552E-5+7.081227957080357E-11i     1.3636331973180312E-7-5.79615449723782E-13i       -4.8026436456633155E-5+2.0714180996119465E-10i
0.013636363636363641      0                        0.0015                   -1.5366166739919264E-5-8.237991351396328E-6i      -3.325636558119353E-8-3.894183422316913E-9i       -4.47638880221587E-5-2.2263943698071985E-6i       -1.450663224725993E-5+6.521978065397185E-11i      -3.327291125815855E-8+1.5109675374373118E-13i     -4.424960709706224E-5+1.9129799459519747E-10i
0.014242424242424244      0                        0.0015                   -1.4062384011579712E-5-7.752580757391813E-6i      -2.0397799152982628E-7-3.318831377998628E-8i      -4.093076523624872E-5-1.7018931113596644E-6i      -1.3223944169393146E-5+5.96272817371401E-11i      -2.0290914224814732E-7+8.818089572115545E-13i     -4.0472777737490784E-5+1.7545417922919987E-10i
0.014848484848484847      0                        0.0015                   -1.274994543281134E-5-7.257706725693831E-6i       5.2650270535720134E-8+7.331943861288784E-9i       -3.856363744326487E-5-1.388568365684738E-6i       -1.1939126953355999E-5+5.398511325997315E-11i     5.1900348831557946E-8-2.258495431638939E-13i      -3.8154669853247944E-5+1.657445801632375E-10i
0.015454545454545457      0                        0.0015                   -1.1706226647119854E-5-6.831904958525796E-6i      4.1701607158758924E-9+6.94683100396754E-9i        -3.580559807115551E-5-1.0523932541479036E-6i      -1.0919358906619019E-5+4.949496673431722E-11i     4.587463249604382E-9-8.901529970987293E-15i       -3.544560988553655E-5+1.543479326635721E-10i
0.01606060606060606       0                        0.0015                   -1.099947257494018E-5-6.462201048417716E-6i       -3.485937199955349E-8-4.413159458409462E-9i       -3.3275927686505125E-5-7.837019676289311E-7i      -1.0234889887766568E-5+4.648578750208363E-11i     -3.41428859912808E-8+1.5777857969776281E-13i      -3.295435627284632E-5+1.4382213478425633E-10i
0.01666666666666667       0                        0.0015                   -1.0142339244896916E-5-6.081073873134669E-6i      -1.1659493943678295E-8-1.792681171604039E-8i      -3.0819643161697177E-5-5.100160384783307E-7i      -9.402160185016458E-6+4.2819108553875733E-11i     -9.9309230337883E-9+5.516523757843891E-14i        -3.053796894576688E-5+1.3361297837599822E-10i
0.017272727272727273      0                        0.0015                   -9.259968495873676E-6-5.707180290428753E-6i       1.1027090186637307E-7+2.5634870036458504E-8i      -2.8956440443877373E-5-3.36224799355117E-7i       -8.545987151740071E-6+3.903212328398846E-11i      1.0910259674587142E-7-4.782697581466913E-13i      -2.871179252060149E-5+1.2591445683719872E-10i