% Model:              FEA.mph
% Version:            COMSOL 6.0.0.318
% Date:               Oct 5 2022, 00:13
% Dimension:          3
% Nodes:              100
% Expressions:        6
% Description:        Magnetic flux density, x component, Magnetic flux density, y component, Magnetic flux density, z component
% Length unit:        m
% x                       y                        z                        mf.Bx (T) @ freq=1000, Material Switch 1=Aluminum mf.By (T) @ freq=1000, Material Switch 1=Aluminum mf.Bz (T) @ freq=1000, Material Switch 1=Aluminum mf.Bx (T) @ freq=1000, Material Switch 1=Air      mf.By (T) @ freq=1000, Material Switch 1=Air      mf.Bz (T) @ freq=1000, Material Switch 1=Air
-0.03                     -0.005                   0.0015                   3.110020864394744E-5-1.1297236001515046E-5i       3.148077528227554E-7+2.945478256978018E-7i        -5.0791726623956434E-5+9.319035664902492E-6i      2.932809131096553E-5-1.2540403320212592E-10i      -2.432565740030556E-7+1.0362164307959887E-12i     -7.233326147002754E-5+3.055958213020305E-10i
-0.029393939393939392     -0.005                   0.0015                   3.638441363780038E-5-1.2514409330130525E-5i       1.226165064732097E-6+1.4239815455906586E-7i       -5.602914637801141E-5+1.2374522634238374E-5i      3.299249211197803E-5-1.4094023560877287E-10i      4.924675334839546E-7-2.0872128882749406E-12i      -7.979823619748763E-5+3.3682291448631085E-10i
-0.028787878787878786     -0.005                   0.0015                   4.2824812135146766E-5-1.3694472068570178E-5i      1.8815592442266837E-6+1.8879817614609365E-6i      -5.889993444790167E-5+2.055036603760885E-5i       3.7521412279592676E-5-1.601402788120359E-10i      1.1391803193924917E-7-4.757042390306235E-13i      -8.724965645779412E-5+3.6795391732826974E-10i
-0.02818181818181818      -0.005                   0.0015                   5.138137412287686E-5-1.1628382501918896E-5i       2.054082423571526E-6+1.155869438556535E-6i        -6.547220926875967E-5+2.320463338422433E-5i       4.236403513723094E-5-1.8062188005988358E-10i      2.2218735014963454E-7-9.615143460022548E-13i      -9.573043998739508E-5+4.0334992488122166E-10i
-0.027575757575757573     -0.005                   0.0015                   6.0120985318304825E-5-9.430676920786141E-6i       2.301782642720614E-6+1.1887267563369372E-6i       -7.328176315029634E-5+2.802324684163585E-5i       4.730969983668519E-5-2.0154391708015345E-10i      2.2403425982089496E-7-9.480758547535289E-13i      -1.0612418785473218E-4+4.4673762167380265E-10i
-0.02696969696969697      -0.005                   0.0015                   6.976465985913754E-5-6.151754200282118E-6i        2.483998352663072E-6+1.133484432985282E-6i        -8.485201502348989E-5+3.1578250926747223E-5i      5.242902787468639E-5-2.2318576586365926E-10i      5.6421440064704695E-8-2.352420180737902E-13i      -1.1889524879134836E-4+5.000749765320773E-10i
-0.026363636363636363     -0.005                   0.0015                   8.545630042789703E-5-1.0415334874283498E-6i       2.3970200920827396E-6+1.3484602280926299E-6i      -9.172923181106712E-5+3.77376183974943E-5i        6.142261969003637E-5-2.6118919355114093E-10i      -4.088487482300368E-7+1.7210216603515272E-12i     -1.292330671445398E-4+5.430994739526902E-10i
-0.025757575757575757     -0.005                   0.0015                   9.887895266194838E-5+4.0563176898118046E-6i       1.1034793904741687E-6+1.3013244107205158E-6i      -1.064044079089378E-4+4.065984017018832E-5i       6.886614975212604E-5-2.9264056993147014E-10i      -1.5214786847773509E-6+6.395372384649986E-12i     -1.4444702196878792E-4+6.065308126428334E-10i
-0.02515151515151515      -0.005                   0.0015                   1.2038085235052242E-4+1.183338789121064E-5i       4.472548354603865E-6+2.099867041853889E-6i        -1.2269212929866898E-4+4.420935983379107E-5i      8.156018083914146E-5-3.4619703549738187E-10i      4.4525807442532484E-7-1.883247204272415E-12i      -1.607404286406098E-4+6.743323639223391E-10i
-0.024545454545454544     -0.005                   0.0015                   1.418827520390974E-4+1.961045809260951E-5i        7.841617318733317E-6+2.8984096729873046E-6i       -1.3897985068840057E-4+4.77588794973938E-5i       9.42542119261575E-5-3.9975350106329505E-10i       2.4119948336280344E-6-1.0161866793195456E-11i     -1.7703383531243163E-4+7.421339152018395E-10i
-0.023939393939393937     -0.005                   0.0015                   1.717849645863957E-4+2.9986405320115775E-5i       6.144412602610526E-6+2.4172539923006625E-6i       -1.6371815089205946E-4+4.9290604881387475E-5i     1.1387848322480174E-4-4.825608036601744E-10i      7.473274060642264E-7-3.1584454787599563E-12i      -1.9865211515105743E-4+8.320349267692446E-10i
-0.02333333333333333      -0.005                   0.0015                   2.0221291445923003E-4+4.085964688197397E-5i       3.873522696961121E-6+2.1204491243427645E-6i       -1.9635471684945445E-4+4.8482052431386504E-5i     1.3461799990090628E-4-5.700810634922086E-10i      -1.4673712967033488E-6+6.122122416028419E-12i     -2.2647572157199895E-4+9.478892216973777E-10i
-0.022727272727272728     -0.005                   0.0015                   2.3965541695971846E-4+5.2998609443320174E-5i      2.9815322779036015E-6+1.5765453785595738E-6i      -2.2852439321053306E-4+4.815678229792787E-5i      1.625642779613148E-4-6.882474895074112E-10i       -2.0772623772332896E-6+8.77032800982597E-12i      -2.5367704835844215E-4+1.060853253829124E-9i
-0.022121212121212118     -0.005                   0.0015                   2.9430769081123303E-4+6.760264835236626E-5i       6.335746910487289E-6+3.015449586921129E-6i        -2.7458406894499644E-4+4.3153338956698956E-5i     2.0702101485398907E-4-8.75793342013075E-10i       -8.072700431644461E-7+3.440255414628562E-12i      -2.908362013964061E-4+1.2151452091240846E-9i
-0.021515151515151515     -0.005                   0.0015                   3.4507907521134223E-4+8.347223325675017E-5i       9.2518541254502E-6+3.2605891500641488E-6i         -3.199049747349485E-4+3.940098281992005E-5i       2.4615631893705036E-4-1.0408666393398084E-9i      1.6581078603861263E-6-7.008967287828443E-12i      -3.2834866621207363E-4+1.3710308296421006E-9i
-0.02090909090909091      -0.005                   0.0015                   4.06632281774599E-4+1.0090342608494206E-4i        9.421885395678713E-6+3.213268200881254E-6i        -3.6893266674861014E-4+3.4401373183448687E-5i     2.955438260930752E-4-1.2491309977267136E-9i       1.3801652926745574E-6-5.862038891901621E-12i      -3.686190796519191E-4+1.5383322537088035E-9i
-0.020303030303030302     -0.005                   0.0015                   4.92630901142791E-4+1.1639876514549292E-4i        9.766955214061956E-6+3.9958807999430505E-6i       -4.37404179875626E-4+2.1453077449116462E-5i       3.741186211394077E-4-1.5814756326722872E-9i       1.6298309994319804E-7-6.628747005299734E-13i      -4.2147833891850137E-4+1.7566117434961282E-9i
-0.019696969696969695     -0.005                   0.0015                   6.083846169621693E-4+1.3593524637577574E-4i       3.3910044613055064E-6+3.4620201439012515E-6i      -5.034209393824218E-4+5.3167024256179165E-6i      4.8101673472268885E-4-2.0328746968174587E-9i      -5.4946968531262405E-6+2.3466725177563534E-11i    -4.7123705307332926E-4+1.960376041285938E-9i
-0.01909090909090909      -0.005                   0.0015                   7.496308250256661E-4+1.5775918806819865E-4i       1.103225420691161E-5+5.388633810162553E-6i        -6.022699466552847E-4-1.4664475169740978E-5i      6.133353323208891E-4-2.5906466434789586E-9i       4.1354498307027976E-7-1.960395528199968E-12i      -5.529798501162362E-4+2.29638183736134E-9i
-0.018484848484848486     -0.005                   0.0015                   9.666377881784247E-4+1.728169745626295E-4i        1.4088823066908673E-5+5.118995695582978E-6i       -6.92652293595592E-4-3.9324188386408285E-5i       8.268507330090303E-4-3.492781707831177E-9i        3.4670620618904024E-6-1.496218770374347E-11i      -6.236136366301005E-4+2.580842317197427E-9i
-0.017878787878787876     -0.005                   0.0015                   0.001234406168171786+1.8824919369442522E-4i       -1.2826828105340013E-5+3.8853618503847465E-6i     -7.563459068384787E-4-7.266737234220427E-5i       0.0010918031752000165-4.6114300979894686E-9i      -2.3180150389975028E-5+9.899419595156755E-11i     -6.638638734334625E-4+2.7309192477996513E-9i
-0.017272727272727273     -0.005                   0.0015                   0.0016697968327107683+2.0145179066383319E-4i      4.92282806205484E-5+4.975893394640058E-6i         -8.811654556393298E-4-1.0970418471448277E-4i      0.0015278100428566836-6.428203091085633E-9i       3.835317237537838E-5-1.4577944284939927E-10i      -7.667927522193477E-4+3.1105382516379017E-9i
-0.016666666666666666     -0.005                   0.0015                   0.002437540037666261+2.06359848184358E-4i         -2.6989344720433265E-5+7.714972555002408E-6i      -8.716934282602192E-4-1.5236631045188E-4i         0.0023006200653555944-9.623338244479154E-9i       -4.018628082190479E-5+1.475773441394597E-10i      -7.337423284992694E-4+2.8760765123795734E-9i
-0.01606060606060606      -0.005                   0.0015                   0.003436707597550724+2.0516674603969986E-4i       -3.415032695482502E-5+5.973124821537755E-6i       -4.211444102366962E-4-1.9902282722775492E-4i      0.0033090387602182692-1.3639742165352151E-8i      -4.6489447863662966E-5+1.7326503214834537E-10i    -2.60873644930046E-4+9.539754554705154E-10i
-0.015454545454545453     -0.005                   0.0015                   0.0042986918297558945+1.9209206316470355E-4i      1.540229580736058E-5+5.857382017317214E-6i        5.852839901706555E-4-2.470920851613198E-4i        0.004185774123646674-1.7300462996013947E-8i       2.8191481115211772E-6-1.2665470751791477E-11i     7.664708103054973E-4-3.182918207450074E-9i
-0.014848484848484847     -0.005                   0.0015                   0.004749428696170595+1.6890139933724649E-4i       1.342373597299851E-5+6.153207034655933E-6i        0.0019585186635432787-2.964036080900776E-4i       0.0046552963486140315-1.93539412463135E-8i        7.339561985339211E-7+4.359439512425999E-13i       0.0021573206481997464-8.935604516414145E-9i
-0.01424242424242424      -0.005                   0.0015                   0.004472293958966261+1.294454787907841E-4i        1.761310961519353E-5+6.394359841081865E-6i        0.0036105829681071597-3.304970831448044E-4i       0.004401545291599579-1.831169589398696E-8i        4.918642891529735E-6-1.8918086932224658E-11i      0.0038193325174280114-1.584110699549667E-8i
-0.013636363636363634     -0.005                   0.0015                   0.003558109576024898+7.742593039447346E-5i        1.3963535982800326E-5+6.0052298357607555E-6i      0.004706338897995135-3.6334272643388993E-4i       0.0035141104784160845-1.4669747991531243E-8i      1.7014620242051387E-6-1.045192269254028E-11i      0.0049223376619656495-2.04374034502461E-8i
-0.013030303030303031     -0.005                   0.0015                   0.002447739225168376+2.1229939521354015E-5i       -5.539455792525185E-6+5.216927458643819E-6i       0.005103656093554896-3.699182774467093E-4i        0.00242995075283978-1.029790778223676E-8i         -1.7055813990742193E-5+5.917230378307519E-11i     0.005315069120547847-2.2154165081751353E-8i
-0.012424242424242424     -0.005                   0.0015                   0.0017256888452334296-3.397671881848503E-5i       1.1080119759904585E-5+9.586434940705697E-6i       0.005229336911788595-3.501697614964034E-4i        0.0017303477791861298-7.356116201683852E-9i       -2.0428017006319382E-6+1.4511551144165594E-11i    0.005425448111017479-2.2722379773937308E-8i
-0.011818181818181818     -0.005                   0.0015                   0.0012188881738179422-9.846129740372002E-5i       3.649975049505212E-6+7.288927021814742E-6i        0.005225269333341401-3.295329002719428E-4i        0.0012447309935641852-5.304664232754019E-9i       -7.354239242676232E-6+3.419508757363524E-11i      0.0054082791901611275-2.273508894866796E-8i
-0.011212121212121211     -0.005                   0.0015                   7.425683104758467E-4-1.5863889247938587E-4i       1.038175531075259E-5+8.194179541883615E-6i        0.005195470952522832-2.7217710649876507E-4i       7.860896969750413E-4-3.361870662381313E-9i        -6.67873305808188E-7+6.544755271512985E-12i       0.0053543179196871415-2.2539435262811464E-8i
-0.010606060606060605     -0.005                   0.0015                   3.27426067132625E-4-1.5591385145813098E-4i        6.490433342941013E-6-5.8880124823741924E-6i       0.005201995383741123-2.0007767063261937E-4i       3.734768322498534E-4-1.5901022213248634E-9i       2.1894153023893637E-7+2.7051869107622336E-12i     0.00533343636368872-2.247011367391524E-8i
-0.009999999999999998     -0.005                   0.0015                   -4.493600515688477E-5-1.5417634337035522E-4i      1.430876666067742E-5-2.039351783865972E-6i        0.005203333778064674-1.294054113798611E-4i        -2.011257334035677E-6+8.231721296568482E-12i      8.076828118124078E-6-2.6951820986596552E-11i      0.005309321310258072-2.2383894331872925E-8i
-0.009393939393939392     -0.005                   0.0015                   -4.215456392907338E-4-1.4780805519931553E-4i      7.72145816805611E-6+3.774834691941834E-6i         0.005245323127240182-9.057251834609429E-5i        -3.81481437674414E-4+1.6335391888698137E-9i       -4.7279363322939773E-7+3.9519949274745274E-13i    0.005338223356646407-2.2492743708708595E-8i
-0.008787878787878785     -0.005                   0.0015                   -8.046608696847139E-4-1.0534585094557124E-4i      1.0258923090454954E-5+5.7240906821114795E-6i      0.005278206280836254-5.8714985133811394E-5i       -7.769658200736706E-4+3.3137626729659546E-9i      1.8840499866135466E-6-9.740094808445359E-12i      0.005360128967524753-2.256995730939414E-8i
-0.008181818181818179     -0.005                   0.0015                   -0.0012576263534213542-7.815641026039848E-5i      2.9126914818752847E-5+2.935988177164145E-6i       0.005307550422556222-4.72305612862532E-5i         -0.0012376514370511576+5.281916117903163E-9i      2.234207573931224E-5-8.573788264616176E-11i       0.00538448727912171-2.263455977212521E-8i
-0.007575757575757576     -0.005                   0.0015                   -0.0017071510776217255-5.631126104976977E-5i      1.5485793410135312E-5+3.6457802725503845E-6i      0.005323619161042164-4.167885407503169E-5i        -0.0016930813677745876+7.203675344709245E-9i      8.586329019549116E-6-4.327492904634041E-11i       0.00539730070161544-2.2617217172866232E-8i
-0.0069696969696969695    -0.005                   0.0015                   -0.002503931656060466-4.310944099470555E-5i       4.789654259132817E-6+4.32155009076992E-6i         0.0052399514904679974-4.022884850165729E-5i       -0.002493366203003196+1.0548417776018486E-8i      -2.136566772036226E-6+1.080194277652764E-11i      0.005311821588433225-2.2162494467367808E-8i
-0.006363636363636363     -0.005                   0.0015                   -0.003525261519053773-3.271204438489523E-5i       -3.1607133227137124E-6+4.3673728039313555E-6i     0.0048399271083095705-3.9912473251218074E-5i      -0.0035174255949725207+1.4689135000522772E-8i     -9.877257046885662E-6+3.565144848250741E-11i      0.004910327287734806-2.038230482140211E-8i
-0.0057575757575757565    -0.005                   0.0015                   -0.004476320879774644-2.5297569267523595E-5i      -4.530392673873264E-5+4.8257734703520524E-6i      0.0036732425201209135-4.040677857416419E-5i       -0.004470329400331544+1.8598260915745156E-8i      -5.196972862478444E-5+2.1225476795151318E-10i     0.003742699284973106-1.5574995040553284E-8i
-0.00515151515151515      -0.005                   0.0015                   -0.004696734954133771-1.9925903102820672E-5i      3.6804132348317725E-5+5.173618364498792E-6i       0.002350825913397598-4.181722264252235E-5i        -0.0046920448480778695+1.9528072446525076E-8i     3.0130705260084448E-5-1.2414315651594996E-10i     0.002419640054546316-1.0048751241886136E-8i
-0.0045454545454545435    -0.005                   0.0015                   -0.0041377702260727445-1.5931802555080722E-5i     -3.347247423000216E-5+5.460366993637945E-6i       5.763519593281717E-4-4.216994760825694E-5i        -0.004134099553163096+1.7054086542595442E-8i      -4.00081813688169E-5+1.4793211633091658E-10i      6.443394873809835E-4-2.68867134975873E-9i
-0.003939393939393937     -0.005                   0.0015                   -0.0032433582257984303-1.293527907962513E-5i      7.80588304041454E-5+5.863763734138724E-6i         -3.248663179133207E-4-4.319314708009042E-5i       -0.003240397957600739+1.3360185018745165E-8i      7.150208478242607E-5-2.7343487753253117E-10i      -2.574146915377126E-4+9.591617282034128E-10i
-0.003333333333333334     -0.005                   0.0015                   -0.0022989224991148763-1.0696128766735156E-5i     -3.2625244818825904E-5+6.147114103050773E-6i      -7.880680971574265E-4-4.4007460843746235E-5i      -0.0022965246787943535+9.575328810558759E-9i      -3.91542694204829E-5+1.4987020724501823E-10i      -7.209944237298871E-4+2.8413851505154245E-9i
-0.0027272727272727275    -0.005                   0.0015                   -0.0015046915513053875-8.765887585939088E-6i      4.121540839606766E-5+6.746632510863204E-6i        -7.412627225701811E-4-4.4200645274256056E-5i      -0.001502743549987405+6.335010426683051E-9i       3.439031593423453E-5-1.4843809951523222E-10i      -6.748788364820935E-4+2.7412555659016067E-9i
-0.002121212121212121     -0.005                   0.0015                   -0.0010705935028429156-7.241693485137351E-6i      -1.1839954173798709E-5+6.542779680156903E-6i      -7.386388615538528E-4-4.5103698617528246E-5i      -0.0010689916900358956+4.512077375512915E-9i      -1.8232202888004924E-5+7.731118213002533E-11i     -6.723477343072142E-4+2.762229770175519E-9i
-0.0015151515151515145    -0.005                   0.0015                   -8.040343148637014E-4-6.206220411977381E-6i       -5.65471192813527E-6+6.807429216290091E-6i        -6.977509413818653E-4-4.5809457590710936E-5i      -8.026591525771075E-4+3.392041618262778E-9i       -1.2019765763580416E-5+4.9719000123471804E-11i    -6.31726294220392E-4+2.6177589671467782E-9i
-9.09090909090908E-4      -0.005                   0.0015                   -6.132772051961818E-4-5.354402598049709E-6i       6.894356197621222E-6+6.937878338549914E-6i        -6.10338655444102E-4-4.6832540768090695E-5i       -6.12098858028107E-4+2.5877201864749666E-9i       5.96769611902262E-7-1.519974274118617E-12i        -5.43882533580696E-4+2.2583798839178617E-9i
-3.030303030303015E-4     -0.005                   0.0015                   -4.7112027685599603E-4-4.8396942087501355E-6i     1.343921496846888E-5+6.753149298460823E-6i        -5.357533200545099E-4-4.7802199057458736E-5i      -4.698852055776196E-4+1.986649791250085E-9i       7.512651183478984E-6-3.1477281706888704E-11i      -4.689296542415522E-4+1.951457124893176E-9i
3.03030303030305E-4       -0.005                   0.0015                   -3.845619729825147E-4-4.7198645884170614E-6i      1.1902231863893803E-5+7.599252331792877E-6i       -4.912645786248527E-4-4.7915410910743424E-5i      -3.83036901434379E-4+1.6190634858949376E-9i       5.376309827884239E-6-2.2936296853793502E-11i      -4.24666180816126E-4+1.7694577721561784E-9i
9.090909090909115E-4      -0.005                   0.0015                   -3.0344804803714436E-4-3.762364469684941E-6i      9.948266177799495E-6+7.519513735210724E-6i        -4.3716321886732397E-4-4.875730566661647E-5i      -3.0247612943366006E-4+1.2787718281993087E-9i     3.556617244164571E-6-1.4947421585137292E-11i      -3.701232304194075E-4+1.5439778764918749E-9i
0.001515151515151518      -0.005                   0.0015                   -2.3406149411280187E-4-3.7105076926800614E-6i     6.1366505942511175E-6+7.963536077286116E-6i       -3.8665592842966585E-4-4.9644129021157576E-5i     -2.3284512140701858E-4+9.848668280861322E-10i     -6.548017664141626E-7+2.7336394502895057E-12i     -3.1897632348424726E-4+1.3315632915997194E-9i
0.002121212121212121      -0.005                   0.0015                   -1.9309619568006918E-4-3.614138627762696E-6i      7.2799664054945925E-6+7.432986475502539E-6i       -3.503629900269752E-4-5.0365459046860457E-5i      -1.917209205660554E-4+8.11091491479525E-10i       1.0197658559159555E-6-4.310012265206554E-12i      -2.822520144479803E-4+1.1793443994711552E-9i
0.002727272727272731      -0.005                   0.0015                   -1.5699362883709136E-4-3.5482380601686855E-6i     5.1262503869377914E-6+7.1062233558300025E-6i      -3.197329621069927E-4-5.1780399614121696E-5i      -1.5544456495042468E-4+6.57942671765842E-10i      -8.160471107422824E-7+3.4525550724276565E-12i     -2.504180142725946E-4+1.0472584244161985E-9i
0.003333333333333334      -0.005                   0.0015                   -1.3885552006177816E-4-4.2080619695500945E-6i     4.6237370030800785E-6+7.610376423934126E-6i       -2.9852145692356447E-4-5.3056425210042254E-5i     -1.3645867669558748E-4+5.777983175632493E-10i     -1.809577541560863E-6+7.633714022855687E-12i      -2.2774021575305468E-4+9.532185882050337E-10i
0.003939393939393937      -0.005                   0.0015                   -1.1791169908511039E-4-4.572793338358924E-6i      6.040928050712901E-6+7.191762489109496E-6i        -2.70445704323145E-4-5.393033969667805E-5i        -1.1513137143284759E-4+4.878679090332913E-10i     -3.749472158264249E-10+3.3780265530905717E-15i    -1.9885107989766856E-4+8.328197325271806E-10i
0.004545454545454547      -0.005                   0.0015                   -1.0012326825265677E-4-5.3894659908899575E-6i     6.348974005374226E-6+7.32442396579037E-6i         -2.5509242968629767E-4-5.586530147527427E-5i      -9.645504781175501E-5+4.0904115342053764E-10i     1.4654814721296658E-7-6.172663116651681E-13i      -1.8145590027690485E-4+7.607002436320913E-10i
0.00515151515151515       -0.005                   0.0015                   -8.743275936342568E-5-6.407457959552992E-6i       7.491598678347226E-6+7.4765361905707584E-6i       -2.3492212989429233E-4-5.7180951881304835E-5i     -8.27613514732373E-5+3.512722297500522E-10i       1.0181862559392093E-6-4.2770378043595775E-12i     -1.5977874115612488E-4+6.703228741047591E-10i
0.00575757575757576       -0.005                   0.0015                   -8.023217658257426E-5-8.326866550046523E-6i       6.642732249019512E-6+7.4114572456117966E-6i       -2.2246970069588032E-4-5.894254412832235E-5i      -7.376328274612476E-5+3.1329651707591504E-10i     1.435857468727738E-7-6.182154209168555E-13i       -1.450466891305596E-4+6.089341956303841E-10i
0.006363636363636363      -0.005                   0.0015                   -7.333948155008405E-5-1.1275184210833805E-5i      6.752682990629716E-6+7.997038663482387E-6i        -2.1058053200323588E-4-6.142327061543497E-5i      -6.441565562479573E-5+2.7388433554778657E-10i     -3.723035933531776E-7+1.5656019894521629E-12i     -1.3040671040445663E-4+5.479512915104472E-10i
0.006969696969696973      -0.005                   0.0015                   -6.732643665066949E-5-1.474706538112439E-5i       8.511392820226109E-6+8.937175423381807E-6i        -2.0789295276134757E-4-6.752427676461992E-5i      -5.522334154646076E-5+2.350279620725554E-10i      5.074683651658382E-7-2.164476505068877E-12i       -1.213422970092002E-4+5.10356215707548E-10i
0.007575757575757576      -0.005                   0.0015                   -6.264012611522382E-5-1.809764715225938E-5i       6.229156071273239E-6+7.303524752670815E-6i        -1.9376813329429984E-4-6.698874431461895E-5i      -4.758780983153834E-5+2.0273658916736017E-10i     -4.899273112269394E-7+2.058390182354685E-12i      -1.0694949907581112E-4+4.501438147922416E-10i
0.008181818181818186      -0.005                   0.0015                   -6.170612679628665E-5-2.3534043492723497E-5i      7.0305367530395764E-6+7.199770090212227E-6i       -1.852801546889252E-4-6.840118097338764E-5i       -4.196549146822829E-5+1.789547230394921E-10i      1.7366499303742879E-7-7.373759803427502E-13i      -9.615872867869079E-5+4.0506679091148614E-10i
0.008787878787878789      -0.005                   0.0015                   -6.301202013405993E-5-3.0615632560991256E-5i      6.669110388471828E-6+6.6848678419662984E-6i       -1.7839675457113316E-4-6.934387442045238E-5i      -3.727000627438523E-5+1.5908215942133736E-10i     3.6643251818765E-8-1.6472422514707512E-13i        -8.672519247808583E-5+3.656593642426044E-10i
0.009393939393939392      -0.005                   0.0015                   -6.72624602929616E-5-3.952011189437858E-5i        7.383339792982976E-6+7.357301582671143E-6i        -1.724109687369558E-4-6.910299610846723E-5i       -3.353654294815933E-5+1.4327116360823686E-10i     -9.390672160289454E-8+3.9184225789346163E-13i     -7.881667845998172E-5+3.326153584490819E-10i
0.010000000000000002      -0.005                   0.0015                   -7.315519731990994E-5-4.9771104952103345E-5i      8.776001695087266E-6+8.66269149575247E-6i         -1.6325744939743944E-4-6.1023085852409656E-5i     -3.0073352489494825E-5+1.2859480443426894E-10i    -1.4602284299284588E-7+6.146188192565084E-13i     -7.233893356366959E-5+3.055502284524215E-10i
0.010606060606060605      -0.005                   0.0015                   -8.134499843401763E-5-6.044935488586438E-5i       8.267763037115867E-6+6.803911826959057E-6i        -1.523815231640214E-4-5.161740799310065E-5i       -2.6781293544132605E-5+1.1463711251438016E-10i    1.1876994346292929E-7-5.044369190480409E-13i      -6.576081204404355E-5+2.780077750294479E-10i
0.011212121212121215      -0.005                   0.0015                   -8.809824573176132E-5-6.786458793684163E-5i       1.076011415178862E-5+9.364158968793709E-6i        -1.3919004745027068E-4-3.935699739917431E-5i      -2.4211231579187524E-5+1.0372463158922202E-10i    -2.7372428739564584E-7+1.1542744821745545E-12i    -5.9543317925766357E-5+2.5197804696222706E-10i
0.011818181818181818      -0.005                   0.0015                   -8.963755053885495E-5-6.505097594099112E-5i       1.1304605620247974E-5+9.269626448043893E-6i       -1.2622417434753375E-4-2.8920067481255814E-5i     -2.1984303675763787E-5+9.426541156667972E-11i     -1.2396525958341625E-7+5.198127255938991E-13i     -5.45698372961981E-5+2.3110901396335484E-10i
0.012424242424242428      -0.005                   0.0015                   -9.117685534594755E-5-6.223736394514058E-5i       1.184909708870852E-5+9.175093927294293E-6i        -1.1325830124479672E-4-1.8483137563336582E-5i     -1.9757375772339752E-5+8.480619154413611E-11i     2.5793768228799777E-8-1.146490309863428E-13i      -4.9596356666630465E-5+2.1023998096448533E-10i
0.013030303030303031      -0.005                   0.0015                   -9.191982812847024E-5-5.882184494680749E-5i       1.2760331151797071E-5+9.334910982857742E-6i       -1.004285077819047E-4-1.0094744092484042E-5i      -1.794830775703804E-5+7.710784190512847E-11i      -7.265962186688837E-8+3.0817208426620877E-13i     -4.539454829654264E-5+1.9260821504376967E-10i
0.013636363636363641      -0.005                   0.0015                   -9.003109349093349E-5-5.2038844431658216E-5i      1.4535295020974971E-5+1.0826072691787019E-5i      -8.564904224477574E-5-1.724840917276946E-6i       -1.5915396612310295E-5+6.844949290847592E-11i     1.1399504280626578E-7-4.798732680125726E-13i      -4.158222537969933E-5+1.7659624123375864E-10i
0.014242424242424244      -0.005                   0.0015                   -8.795952933548137E-5-4.719427251127342E-5i       1.384902402376903E-5+9.385631596935814E-6i        -7.559924781306849E-5+3.005219406080766E-6i       -1.4536137924084457E-5+6.257980741091703E-11i     1.3411165149939383E-7-5.742002177609239E-13i      -3.7809558467706084E-5+1.6071969353711105E-10i
0.014848484848484847      -0.005                   0.0015                   -8.380584880324911E-5-4.1350908554894095E-5i      1.3032138766616667E-5+8.468305921956883E-6i       -6.529391285717897E-5+6.047431812945506E-6i       -1.3195321517748726E-5+5.685396476619313E-11i     1.4951668424152887E-8-6.697516000946683E-14i      -3.475609484397212E-5+1.478598817482811E-10i
0.015454545454545457      -0.005                   0.0015                   -7.965216827101527E-5-3.550754459851511E-5i       1.2215253509464117E-5+7.550980246977931E-6i       -5.498857790128928E-5+9.089644219810012E-6i       -1.1854505111412473E-5+5.112812212146697E-11i     -1.042083146509881E-7+4.402498977415572E-13i      -3.170263122023804E-5+1.3500006995945094E-10i
0.01606060606060606       -0.005                   0.0015                   -7.661388888996189E-5-3.135175085777669E-5i       1.2712713337050463E-5+7.459134401206294E-6i       -4.7270178564222083E-5+1.031124571427666E-5i      -1.0909012535076655E-5+4.70872167456407E-11i      -2.6117139144076992E-8+1.0845658241238987E-13i    -2.903918036841369E-5+1.237720560972787E-10i
0.01666666666666667       -0.005                   0.0015                   -7.338878057541599E-5-2.7722929717960577E-5i      1.2302812864950106E-5+7.027400716761028E-6i       -4.1113759675135255E-5+1.1301478239149907E-5i     -1.0125050111125263E-5+4.373621123309607E-11i     9.520310971844795E-9-4.299367303364073E-14i       -2.66273200985733E-5+1.135894638552568E-10i