% Model:              FEA.mph
% Version:            COMSOL 6.0.0.318
% Date:               Oct 27 2022, 08:27
% Dimension:          3
% Nodes:              100
% Expressions:        6
% Description:        Magnetic flux density, x component, Magnetic flux density, y component, Magnetic flux density, z component
% Length unit:        m
% x                       y                        z                        mf.Bx (T) @ freq=1000, Material Switch 1=Aluminum mf.By (T) @ freq=1000, Material Switch 1=Aluminum mf.Bz (T) @ freq=1000, Material Switch 1=Aluminum mf.Bx (T) @ freq=1000, Material Switch 1=Air      mf.By (T) @ freq=1000, Material Switch 1=Air      mf.Bz (T) @ freq=1000, Material Switch 1=Air
-0.03                     -0.005                   0.0015                   4.9532262243637693E-5-1.4605582950677314E-6i      2.033244150774236E-6+4.3137462449737443E-7i       -2.981450460911645E-5+1.0750519474364095E-5i      2.3427848823776693E-5-1.016459058396969E-10i      2.395430989320601E-7-9.927832231313743E-13i       -6.240134228955143E-5+2.613750737220939E-10i
-0.029393939393939392     -0.005                   0.0015                   5.794546137913741E-5-2.548464301855938E-6i        3.023322242101629E-6+3.099599064502383E-7i        -3.265941821021325E-5+1.217960590841907E-5i       2.6604579355671257E-5-1.1525558219072719E-10i     6.242059087587523E-7-2.625445579136336E-12i       -6.687309286164269E-5+2.7988537667736876E-10i
-0.028787878787878786     -0.005                   0.0015                   6.553799464875299E-5-1.5224688585790806E-6i       2.041611844794464E-6+8.203802496041654E-7i        -4.03212502656499E-5+1.6685471101785654E-5i       2.9511588521530306E-5-1.277496719335542E-10i      -1.921146591549877E-8+8.009668519559531E-14i      -7.33788685148317E-5+3.068816666432728E-10i
-0.02818181818181818      -0.005                   0.0015                   7.552016008457042E-5+4.121445440443994E-7i        2.304464920016233E-6+5.345890761924871E-7i        -4.8568009750382034E-5+1.9213376514747894E-5i     3.392456330659024E-5-1.4663722556578716E-10i      -1.55134803914343E-7+6.704321385824277E-13i       -8.079927292935414E-5+3.377507312887041E-10i
-0.027575757575757573     -0.005                   0.0015                   8.550232552038765E-5+2.3467579466678387E-6i       2.567317995238107E-6+2.487979027807076E-7i        -5.681476923511425E-5+2.1741281927710135E-5i      3.83375380916518E-5-1.6552477919802302E-10i       -2.910581419131432E-7+1.2607675919690015E-12i     -8.821967734387788E-5+3.686197959341288E-10i
-0.02696969696969697      -0.005                   0.0015                   9.696821175247602E-5+5.777032920067286E-6i        3.187086370050904E-6+4.0336884054360697E-7i       -6.859673123125635E-5+2.5136630711510543E-5i      4.395582173980267E-5-1.8958478358268914E-10i      -1.6677485015366943E-7+7.34279753822567E-13i      -9.796866242107721E-5+4.0925464747296627E-10i
-0.026363636363636363     -0.005                   0.0015                   1.1199603576288734E-4+1.0318033502737309E-5i      3.1859061673464927E-6+5.403684518978915E-7i       -7.848531276468876E-5+2.9426749624369935E-5i      5.191675346280175E-5-2.2365289170980652E-10i      -5.868787932449195E-7+2.517861184320757E-12i      -1.0647882455697312E-4+4.445666971579669E-10i
-0.025757575757575757     -0.005                   0.0015                   1.2575126070703754E-4+1.5241595602703959E-5i      2.874169421840313E-6+6.328960563044901E-7i        -9.494598730904196E-5+3.0654821445469664E-5i      5.897546933502305E-5-2.538306507587542E-10i       -7.408890581022537E-7+3.152045838435899E-12i      -1.2018629378318267E-4+5.01967781193903E-10i
-0.02515151515151515      -0.005                   0.0015                   1.475788101118438E-4+2.263722090587101E-5i        5.643651255087673E-6+1.1629132533273181E-6i       -1.1124283993273155E-4+3.373787315830086E-5i      7.18801852143704E-5-3.0900489717364914E-10i       6.278576316153081E-7-2.666246382809901E-12i       -1.323840559868594E-4+5.526536551896514E-10i
-0.024545454545454544     -0.005                   0.0015                   1.6708613574089484E-4+2.9732554994914012E-5i      6.6154925568635045E-6+1.1434470560142305E-6i      -1.3051675667391017E-4+3.540945805602723E-5i      8.350905058413389E-5-3.5870790999757077E-10i      9.22982618937351E-7-3.923856906334974E-12i        -1.4742032379374685E-4+6.153900653645384E-10i
-0.023939393939393937     -0.005                   0.0015                   1.9133689249841378E-4+3.870444671966267E-5i       5.193803624564588E-6+8.546932537515262E-7i        -1.544565731535025E-4+3.609126711627768E-5i       9.933205489934541E-5-4.263734596498205E-10i       -9.337934763964308E-7+4.021606836699095E-12i      -1.6608021147920197E-4+6.934386082005457E-10i
-0.02333333333333333      -0.005                   0.0015                   2.180577260023306E-4+4.807472423899383E-5i        5.860097799870146E-6+1.77766150137056E-6i         -1.862081563147978E-4+3.3922270764084146E-5i      1.1681611871662122E-4-5.011236535485738E-10i      -6.92953110138176E-7+3.012280369184972E-12i       -1.8996063102557931E-4+7.9352314055456E-10i
-0.022727272727272728     -0.005                   0.0015                   2.572262801257504E-4+6.171150931573327E-5i        7.335108256479651E-6+1.2895637379498021E-6i       -2.1314303436558552E-4+3.4798052122973636E-5i     1.4507202176873126E-4-6.218332352141599E-10i      1.236148018779579E-7-4.725671805095648E-13i       -2.0840457990072112E-4+8.701836068783363E-10i
-0.022121212121212118     -0.005                   0.0015                   2.980903237710194E-4+7.501402453054597E-5i        8.798795696193578E-6+1.6065773932640308E-6i       -2.5536137826802233E-4+3.0215515016131624E-5i     1.768941974586585E-4-7.579387747868434E-10i       7.61656988423464E-7-3.224851049690347E-12i        -2.410386514891151E-4+1.0070606077869027E-9i
-0.021515151515151515     -0.005                   0.0015                   3.473487720626438E-4+8.95614525119252E-5i         9.300981887955771E-6+1.8332055205570828E-6i       -3.04495231311948E-4+2.4166603558407732E-5i       2.1715510006665534E-4-9.30177188580371E-10i       2.4674388899876415E-7-9.770250090882474E-13i      -2.782178642173707E-4+1.1629137370192168E-9i
-0.02090909090909091      -0.005                   0.0015                   4.1491085092473453E-4+1.0683280953040248E-4i      1.1595039785499642E-5+1.6559689822935395E-6i      -3.561611709404784E-4+1.3476958969277503E-5i      2.751258938000842E-4-1.1781773463368786E-9i       2.9590284081871575E-6-1.261531190024888E-11i      -3.140375939175651E-4+1.3120609869938606E-9i
-0.020303030303030302     -0.005                   0.0015                   4.969518387540563E-4+1.2343489221709728E-4i       1.2803368072266506E-5+2.8099131943784774E-6i      -4.2383436597785663E-4+2.742878983291841E-6i      3.496244312412666E-4-1.4973367358454586E-9i       2.3426702117942883E-6-9.855947892331398E-12i      -3.674467590962578E-4+1.5360460887266851E-9i
-0.019696969696969695     -0.005                   0.0015                   6.146376925453539E-4+1.423625090509831E-4i        1.4403427249636024E-5+2.8846583695791856E-6i      -5.037097765687988E-4-1.4068842803397874E-5i      4.601819756687663E-4-1.970862372934244E-9i        3.555043386004996E-6-1.493831259247717E-11i       -4.2897819900645324E-4+1.792636800406407E-9i
-0.01909090909090909      -0.005                   0.0015                   7.585928590890245E-4+1.595600095258596E-4i        8.001009731729847E-7+2.728434359354384E-6i        -5.79885673810933E-4-3.7627576148363946E-5i       5.994133360609881E-4-2.5675769320422532E-9i       -1.1120233367664916E-5+4.696509941708829E-11i     -4.831023299355958E-4+2.0135092696554423E-9i
-0.018484848484848486     -0.005                   0.0015                   9.025480256326917E-4+1.767575100007357E-4i        -1.280322530328908E-5+2.5722103491293384E-6i      -6.560615710530684E-4-6.118630949333002E-5i       7.386446964532094E-4-3.164291491150279E-9i        -2.5795510121334395E-5+1.0886851142665044E-10i    -5.372264608647405E-4+2.2343817389044975E-9i
-0.017878787878787876     -0.005                   0.0015                   9.411281418871421E-4+2.0224088527460527E-4i       4.172606289799385E-5+5.211150118340367E-6i        -7.411178771092135E-4-9.471974197398017E-5i       7.721411384540612E-4-3.410067769457708E-9i        2.8590985421126855E-5-1.148487748062469E-10i      -5.99453928446392E-4+2.492188547149337E-9i
-0.017272727272727273     -0.005                   0.0015                   0.0016228673128056703+2.0423287573195933E-4i      1.2606556385349327E-5+3.7053819864612397E-6i      -8.051583400396924E-4-1.3586361133670767E-4i      0.001463718030282472-6.268875149668341E-9i        -6.952433430837401E-7+2.031604891415853E-12i      -6.390791436893901E-4+2.592976812270837E-9i
-0.016666666666666666     -0.005                   0.0015                   0.0023046064837241803+2.0622486618931772E-4i      -1.6512950127289122E-5+2.199613854582654E-6i      -8.691988029701867E-4-1.7700748069943433E-4i      0.002155294922110855-9.127682529878886E-9i        -2.99814721072926E-5+1.1891198458907033E-10i      -6.787043589324051E-4+2.693765077392357E-9i
-0.01606060606060606      -0.005                   0.0015                   0.0033039827962823226+2.0500203319704507E-4i      2.5873106044814465E-5+3.4387842901870786E-6i      -4.020415457006935E-4-2.2319742201231708E-4i      0.003165554739709739-1.326965660982976E-8i        1.179587661310176E-5-4.659054828897826E-11i       -1.893118265434363E-4+6.534231220480875E-10i
-0.015454545454545453     -0.005                   0.0015                   0.004377094154937172+1.897018981254757E-4i        -1.5096016118413061E-5+4.1841419885913075E-6i     2.985643482859082E-4-2.7938949382086517E-4i       0.004257418446268528-1.7787647203358188E-8i       -2.9789698613835736E-5+1.3179995750815535E-10i    5.347308916814272E-4-2.2586465431320645E-9i
-0.014848484848484847     -0.005                   0.0015                   0.004693205694085462+1.596539782102972E-4i        5.174171504654379E-7+4.477104781756261E-6i        0.002211023759535524-3.211717125840563E-4i        0.004595972625105466-1.9370528756119925E-8i       -1.4417992108323521E-5+6.185678552900938E-11i     0.0024631759932063693-1.03925715540355E-8i
-0.01424242424242424      -0.005                   0.0015                   0.004569692947159948+1.2160342863191332E-4i       4.6507593926947005E-6+5.716855026955227E-6i       0.0034722648078918898-3.6255520551413086E-4i      0.004497848523786233-1.8966791264621394E-8i       -1.0676193459385058E-5+4.794354996838106E-11i     0.0037348410000948495-1.575305372491054E-8i
-0.013636363636363634     -0.005                   0.0015                   0.003451167364739322+6.643514077202206E-5i        2.198600656349442E-6+5.3582631325005555E-6i       0.004843425225376306-3.8958744105627456E-4i       0.003408253034125378-1.4427344902823531E-8i       -1.2963755008896932E-5+5.177173005761372E-11i     0.0051105497701272595-2.1484034188938666E-8i
-0.013030303030303031     -0.005                   0.0015                   0.0024538989252771938+4.534347066096742E-6i       1.0553497388645847E-5+5.821373412863094E-6i       0.00507186405584012-3.9190956790257064E-4i        0.0024406777048627233-1.0468642935703252E-8i      -4.35648286223301E-6+2.4482577809386908E-11i      0.005332285696609373-2.256675125838088E-8i
-0.012424242424242424     -0.005                   0.0015                   0.0017256904311099448-6.529773383554617E-5i       -1.623087948129584E-5+2.8443618477332565E-6i      0.005252588478724832-3.790488422152457E-4i        0.0017416115032772243-7.509840485399147E-9i       -2.9487743216975726E-5+1.2485642838804454E-10i    0.005498755107663745-2.3357808449576774E-8i
-0.011818181818181818     -0.005                   0.0015                   0.001190185591390426-1.2182646859621707E-4i       1.546071750116218E-5+2.3798557614678872E-6i       0.005266546336314802-3.4229546363742067E-4i       0.001226071529124224-5.295129453002215E-9i        2.0254809870305136E-6-1.150729998735635E-11i      0.005491189694806253-2.3390515431707294E-8i
-0.011212121212121211     -0.005                   0.0015                   6.904224524987915E-4-1.7436793322193897E-4i       1.5120671354538779E-5+4.458962653248663E-6i       0.005245887628484952-2.93795088125714E-4i         7.435201500558816E-4-3.214267412875168E-9i        2.0065463113031964E-6-8.946394893509413E-12i      0.0054458150624011655-2.324440611754172E-8i
-0.010606060606060605     -0.005                   0.0015                   2.9303933654412854E-4-1.8150063818425272E-4i      3.3438029600851285E-5+6.830086684434994E-6i       0.005279044522884995-2.0557814811479592E-4i       3.457731552755385E-4-1.5008158680291948E-9i       1.9869643902390658E-5-8.151330040874373E-11i      0.0054468706958949896-2.3257946627873778E-8i
-0.009999999999999998     -0.005                   0.0015                   -4.830626079780492E-5-1.7223955224654228E-4i      2.483584088473702E-5-3.8911672559178276E-7i       0.00528827749900835-1.3591371526338984E-4i        2.3159871756745187E-7-4.99321034093865E-13i       1.4218444130389172E-5-5.682429920062118E-11i      0.00543004179462986-2.319566604849478E-8i
-0.009393939393939392     -0.005                   0.0015                   -3.884566340037624E-4-1.4282368406848793E-4i      1.5236760466105087E-5+8.006712822705123E-6i       0.005315978792495445-8.940279754639778E-5i        -3.505548532265052E-4+1.5160301152518107E-9i      1.9347192983208694E-6-8.271197986079475E-12i      0.0054412335701555835-2.3238429669233833E-8i
-0.008787878787878785     -0.005                   0.0015                   -7.799426701240323E-4-1.1155838238891707E-4i      1.5745081164120732E-5+3.4470388122036233E-6i      0.0053291878315820315-6.260227378575365E-5i       -7.5200647382259E-4+3.2494376799006787E-9i        4.127190105767536E-6-1.7151710389173232E-11i      0.005445282190785713-2.323966682467978E-8i
-0.008181818181818179     -0.005                   0.0015                   -0.001214811094543947-8.281617877926232E-5i       -5.826155697944563E-6+5.015476948029985E-6i       0.005302896759408185-5.038393151742687E-5i        -0.0011955476062437175+5.164288291903791E-9i      -1.779611982751124E-5+7.60400797603112E-11i       0.005414077884898958-2.308054737265833E-8i
-0.007575757575757576     -0.005                   0.0015                   -0.0017494077495453647-6.243759176627209E-5i      3.4149988178844987E-6+5.310042607877528E-6i       0.0054448884329554754-4.3249457122667605E-5i      -0.0017360378071783582+7.494436154005923E-9i      -8.606744448884894E-6+3.2113075219651974E-11i     0.005552910103643672-2.3576300993486137E-8i
-0.0069696969696969695    -0.005                   0.0015                   -0.002435131256104406-4.7172452823533446E-5i      -2.993093703031191E-6+5.55713604781627E-6i        0.005197143694503824-4.442164338986439E-5i        -0.002425964033035256+1.0403973035586736E-8i      -1.4955281207743379E-5+7.173269318738654E-11i     0.005304733203734785-2.2455870553189308E-8i
-0.006363636363636363     -0.005                   0.0015                   -0.003507174161937703-3.611289647418601E-5i       4.641938710931055E-5+6.403036643595045E-6i        0.00498124170885433-4.4075022955816366E-5i        -0.0035008803978401996+1.480480809800434E-8i      3.4307873051784427E-5-1.3007671097833262E-10i     0.005087877352137463-2.1402098881873272E-8i
-0.0057575757575757565    -0.005                   0.0015                   -0.004394490382647067-2.8656007537430103E-5i      5.720584933199699E-5+6.5749986406231595E-6i       0.0036698328568552747-4.549559740727946E-5i       -0.004389863119399104+1.8518154115652208E-8i      4.500031491676477E-5-1.9336177914270206E-10i      0.0037763373582536085-1.5938477091761306E-8i
-0.00515151515151515      -0.005                   0.0015                   -0.004636334481104834-2.2158422711133065E-5i      1.559966043247871E-5+6.959438882205872E-6i        0.0019436744903049117-4.6353494880045426E-5i      -0.0046332807003702054+1.951145429571875E-8i      3.4416395991061777E-6-1.2265376526740672E-11i     0.0020497150674250106-8.630617266843324E-9i
-0.0045454545454545435    -0.005                   0.0015                   -0.00417974861149499-1.8366036180982384E-5i       -1.2321627763193702E-5+7.474061937800663E-6i      8.255943114098877E-4-4.852633281675071E-5i        -0.004177262646553662+1.7507867618039106E-8i      -2.457939665721472E-5+1.039726897464621E-10i      9.317769939248878E-4-3.939332063647209E-9i
-0.003939393939393937     -0.005                   0.0015                   -0.0032489045588155368-1.5108971041135946E-5i     1.5099347080057483E-4+7.996995002074571E-6i       -3.3686899243363846E-4-4.9487886015031385E-5i     -0.003246893759491119+1.3589409858437506E-8i      1.386368075772363E-4-5.466030561537174E-10i       -2.3097110800664893E-4+8.03767510222942E-10i
-0.003333333333333334     -0.005                   0.0015                   -0.002279098460243386-1.2722227725056102E-5i      -6.549344890946322E-6+8.30707402222112E-6i        -7.450755942268504E-4-5.1244670084271584E-5i      -0.002277391731260435+9.627840470590919E-9i       -1.8997080544966294E-5+7.609883425578442E-11i     -6.386648458868473E-4+2.5239427796602226E-9i
-0.0027272727272727275    -0.005                   0.0015                   -0.0014878226962864267-1.0911501669759558E-5i     -3.760795542102381E-5+8.692473323209217E-6i       -7.564678761706346E-4-5.216195007911429E-5i       -0.001486105511607896+6.34840902080136E-9i        -5.016481928025139E-5+2.1076334006725577E-10i     -6.5008743331617E-4+2.660944724607512E-9i
-0.002121212121212121     -0.005                   0.0015                   -0.0010866392733873667-9.612999257021775E-6i      3.501258953896502E-5+9.18403362032183E-6i         -7.336452842616609E-4-5.3203420686679E-5i         -0.0010847811914366978+4.6404834324397E-9i        2.2328191293712052E-5-9.568467325978039E-11i      -6.27097373701915E-4+2.5920545382575336E-9i
-0.0015151515151515145    -0.005                   0.0015                   -7.869936155794712E-4-8.628346844741675E-6i       1.0635341904074587E-5+9.335763062245946E-6i       -6.788476457745673E-4-5.41233569375746E-5i        -7.84831242650717E-4+3.362498091331146E-9i        -1.9788578437038957E-6+7.99341329394578E-12i      -5.720943785641917E-4+2.378956176814518E-9i
-9.09090909090908E-4      -0.005                   0.0015                   -5.87990116723292E-4-7.84772260061878E-6i         1.6475089711401672E-5+9.866373010001552E-6i       -6.052044349553771E-4-5.516692259636307E-5i       -5.855247590273334E-4+2.507415268978569E-9i       3.5686619266860065E-6-1.5527113575365357E-11i     -4.979084395163984E-4+2.0765426239892494E-9i
-3.030303030303015E-4     -0.005                   0.0015                   -4.5079157151569553E-4-7.327039585188181E-6i      1.0841258770124401E-5+9.872177436736314E-6i       -5.079752390719232E-4-5.604962150244703E-5i       -4.478893785298039E-4+1.9182082069063133E-9i      -1.8944039194164746E-6+8.302465805581461E-12i     -4.001358621612568E-4+1.668899875588879E-9i
3.03030303030305E-4       -0.005                   0.0015                   -3.573927270040019E-4-6.989651877461784E-6i       1.594747596042205E-5+9.852433144788337E-6i        -4.7190405252142264E-4-5.696600415353109E-5i      -3.5404019673904597E-4+1.5158152235794364E-9i     3.3432828974656783E-6-1.3973390141752814E-11i     -3.6356327184799584E-4+1.5195572552351837E-9i
9.090909090909115E-4      -0.005                   0.0015                   -2.772082175112739E-4-6.641788228137511E-6i       1.4247600130288293E-5+9.92611993748594E-6i        -4.304775990224294E-4-5.803153205537258E-5i       -2.735061450598916E-4+1.1716399772897657E-9i      1.616333958295743E-6-6.831930581108113E-12i       -3.213752660489015E-4+1.3434471162233017E-9i
0.001515151515151518      -0.005                   0.0015                   -2.1531811215395012E-4-6.49231606114105E-6i       1.0622939991284958E-5+1.060082943059372E-5i       -3.9978630907725084E-4-5.9296145676871305E-5i     -2.1116744825062797E-4+9.047957746915141E-10i     -2.617313795629352E-6+1.1215639130764185E-11i     -2.8930817438076704E-4+1.2099859489206983E-9i
0.002121212121212121      -0.005                   0.0015                   -1.8342010641832768E-4-6.7806298932935535E-6i     2.0731375695949464E-5+9.867742147215555E-6i       -3.4859322692742424E-4-6.060975636050018E-5i      -1.7833645319168329E-4+7.642260764210771E-10i     8.37863467886775E-6-3.587552626458618E-11i        -2.3738627403693433E-4+9.913272355090469E-10i
0.002727272727272731      -0.005                   0.0015                   -1.5179443997577653E-4-7.206290070388985E-6i      1.2492004659727263E-5+1.0379697840381133E-5i      -3.1851448755442543E-4-6.0519237444543066E-5i     -1.4555881498999894E-4+6.240499196383531E-10i     -4.6916979972604946E-7+2.0444478329471618E-12i    -2.0694895581150697E-4+8.638172416342766E-10i
0.003333333333333334      -0.005                   0.0015                   -1.3010595879832084E-4-7.810704260544706E-6i      1.2540623239912056E-5+1.0876136209419227E-5i      -3.01351638774984E-4-6.217427613404586E-5i        -1.226567324281039E-4+5.261180000905337E-10i      -9.250095317132369E-7+3.9899510944894954E-12i     -1.8776538761150605E-4+7.839086788357788E-10i
0.003939393939393937      -0.005                   0.0015                   -1.0841747762086427E-4-8.415118450700644E-6i      1.2589241820096415E-5+1.1372574578457295E-5i      -2.8418878999554185E-4-6.382931482354866E-5i      -9.975464986620953E-5+4.2818608054271223E-10i     -1.3808492637002075E-6+5.935454356031002E-12i     -1.6858181941150577E-4+7.04000116037281E-10i
0.004545454545454547      -0.005                   0.0015                   -9.529287685577882E-5-9.858982000760397E-6i       1.3427611617374685E-5+1.1155169619573267E-5i      -2.6441931755059487E-4-6.490157732867789E-5i      -8.470203126960743E-5+3.6389204400717397E-10i     -4.2794212355007355E-7+1.8720506736579038E-12i    -1.4741728677771686E-4+6.152156891659086E-10i
0.00515151515151515       -0.005                   0.0015                   -8.305805650966231E-5-1.1076775450279102E-5i      1.2822747635747264E-5+9.28344685808241E-6i        -2.45853636130658E-4-6.596500731194002E-5i        -7.082888430155517E-5+3.0455732061240506E-10i     8.349093139889733E-7-3.5424905449973535E-12i      -1.278513066354635E-4+5.331113766443505E-10i
0.00575757575757576       -0.005                   0.0015                   -7.284026999735543E-5-1.2194380750567318E-5i      1.1928489664985329E-5+9.541449922715894E-6i       -2.4023456647072946E-4-6.813913978995036E-5i      -5.91062902544057E-5+2.5442818658695676E-10i      -4.4175597956746234E-7+1.9066140887794727E-12i    -1.1940040774876622E-4+4.982497151066782E-10i
0.006363636363636363      -0.005                   0.0015                   -6.472889071768972E-5-1.3692895083099535E-5i      1.216168277017992E-5+8.722952121898537E-6i        -2.3188567573050219E-4-7.280325054048265E-5i      -4.90141624272457E-5+2.113071706247912E-10i       4.3831123593010644E-7-1.851813930655923E-12i      -1.0596461828373937E-4+4.4209216841379517E-10i
0.006969696969696973      -0.005                   0.0015                   -6.533886945703294E-5-1.8805699962606906E-5i      1.2243550957945389E-5+9.305899320629352E-6i       -2.2333868464400643E-4-7.25087948753591E-5i       -4.412127543204045E-5+1.9038347924615594E-10i     -2.5838940685907674E-7+1.1208178786072503E-12i    -9.641844996644043E-5+4.0230131615129305E-10i
0.007575757575757576      -0.005                   0.0015                   -6.62698398095885E-5-2.4549616361583447E-5i       1.477573469420812E-5+1.0935919635580344E-5i       -2.2219878444063382E-4-7.71374295934561E-5i       -3.896482399302534E-5+1.6833301614440217E-10i     3.5871631974610565E-7-1.5134384865049692E-12i     -8.934468654566395E-5+3.730829850858304E-10i
0.008181818181818186      -0.005                   0.0015                   -6.96364764247773E-5-3.375487936075185E-5i        1.3992258834247164E-5+9.96226393302547E-6i        -2.0973532822360778E-4-7.310445413915209E-5i      -3.3739630471325534E-5+1.4596059733561295E-10i    1.358323507821683E-7-5.616539328215937E-13i       -7.9318491492377E-5+3.3111634110717124E-10i
0.008787878787878789      -0.005                   0.0015                   -7.229566110553576E-5-4.031275365361372E-5i       1.4333332952504454E-5+1.025315440701253E-5i       -2.1149579163727276E-4-7.852209866412641E-5i      -2.9535030576129757E-5+1.2791450205791888E-10i    -9.455657719155083E-8+4.234908727957155E-13i      -7.352856469529585E-5+3.071603004692179E-10i
0.009393939393939392      -0.005                   0.0015                   -8.136058260027183E-5-5.218152459684922E-5i       1.4666483694863371E-5+1.0146971586463058E-5i      -2.032115478047246E-4-7.339363609627951E-5i       -2.597383394000916E-5+1.1268076804793025E-10i     -3.69694220608255E-8+1.7430116395529387E-13i      -6.733517185961434E-5+2.814066317180029E-10i
0.010000000000000002      -0.005                   0.0015                   -9.042550409500915E-5-6.405029554008551E-5i       1.4999634437222213E-5+1.0040788765913836E-5i      -1.949273039721754E-4-6.826517352843316E-5i       -2.241263730388889E-5+9.744703403794028E-11i      2.061773307008956E-8-7.488854488564473E-14i       -6.114177902393099E-5+2.5565296296678573E-10i
0.010606060606060605      -0.005                   0.0015                   -1.026727125955773E-4-7.312181232969031E-5i       1.2599576580539517E-5+8.342906863799247E-6i       -1.8625774908011315E-4-5.6322474889396E-5i        -2.020978501534565E-5+8.79689959936558E-11i       1.8502044152625126E-7-7.47354016383018E-13i       -5.660402396989001E-5+2.368836456561935E-10i
0.011212121212121215      -0.005                   0.0015                   -1.0990358281926481E-4-7.905510009469197E-5i      1.7058723662450627E-5+1.135936855088859E-5i       -1.672975162195028E-4-3.944882477172083E-5i       -1.8144546942739737E-5+7.908788293202486E-11i     -3.2633280688224194E-7+1.4250494996294913E-12i    -5.2914175096367766E-5+2.216459041007761E-10i
0.011818181818181818      -0.005                   0.0015                   -1.0974962511800307E-4-7.46176373616768E-5i       1.5816478648976668E-5+9.2791260120664E-6i         -1.530887877775461E-4-2.6684811340155342E-5i      -1.664460541924643E-5+7.264306853909409E-11i      1.3014936522763847E-7-5.305299033008086E-13i      -4.871817224576507E-5+2.0422027538743075E-10i
0.012424242424242428      -0.005                   0.0015                   -1.1553008489650202E-4-7.267475752490797E-5i      1.8537908365686003E-5+1.010170460162038E-5i       -1.3760723405534605E-4-1.3904945382076789E-5i     -1.4661902442472381E-5+6.412082815920959E-11i     -8.124224935124975E-8+3.6606804461517494E-13i     -4.5136778427520504E-5+1.8939881490063956E-10i
0.013030303030303031      -0.005                   0.0015                   -1.1684042912970516E-4-6.726453194735715E-5i      1.877708327857185E-5+9.581329493341941E-6i        -1.2368561306275996E-4-4.4769345329826046E-6i     -1.302995144697386E-5+5.7111116034206137E-11i     4.581991471544434E-9-4.863181085264295E-15i       -4.178800313517085E-5+1.7552722748987057E-10i
0.013636363636363641      -0.005                   0.0015                   -1.1501882638635479E-4-5.9879685221346434E-5i     2.014391737722384E-5+1.0314435691328108E-5i       -1.0700083700256605E-4+3.638974829762168E-6i      -1.1772412968056787E-5+5.168691681382E-11i        3.137461879795106E-8-1.1364858313394849E-13i      -3.9262402163433826E-5+1.6514201567488714E-10i
0.014242424242424244      -0.005                   0.0015                   -1.1172335140212635E-4-5.289831566311263E-5i      1.8903898603455337E-5+8.72522382636793E-6i        -9.424854316642645E-5+1.0146915761773698E-5i      -1.0720694525315818E-5+4.715409550214819E-11i     1.1938831518179798E-8-3.094965910392012E-14i      -3.657413031726137E-5+1.5401008261669892E-10i
0.014848484848484847      -0.005                   0.0015                   -1.0807842702340186E-4-4.574871171364673E-5i      1.794201000254839E-5+7.328144594769245E-6i        -8.298148376872293E-5+1.4080527452894594E-5i      -9.703304991454792E-6+4.2774905331591355E-11i     -1.251104223196878E-7+5.533827021589981E-13i      -3.429746903447714E-5+1.4461138501073334E-10i
0.015454545454545457      -0.005                   0.0015                   -1.0535484775851766E-4-4.035201588604237E-5i      1.878920815632639E-5+7.724678783275514E-6i        -7.150221958187603E-5+1.6840376958299815E-5i      -8.986615696937165E-6+3.9675276615809806E-11i     7.183651636646351E-8-2.924945207665586E-13i       -3.212454823712604E-5+1.3565035769472983E-10i
0.01606060606060606       -0.005                   0.0015                   -9.949797207574311E-5-3.3238967880967785E-5i      1.741946694847345E-5+6.278333012694944E-6i        -6.105814966774967E-5+1.929880242364961E-5i       -8.061650783744313E-6+3.567560547357071E-11i      -4.321917807892459E-8+2.0334665622896851E-13i     -3.007602281746382E-5+1.2718277484061473E-10i
0.01666666666666667       -0.005                   0.0015                   -9.435259228413793E-5-2.7707678264499738E-5i      1.6720981223898034E-5+5.677182609743631E-6i       -5.24212270035687E-5+2.042839697230449E-5i        -7.382206718406015E-6+3.273672661651391E-11i      -4.359278916657569E-8+2.0403767999750404E-13i     -2.8224084178986243E-5+1.1953888215553689E-10i