% Model:              FEA.mph
% Version:            COMSOL 6.0.0.318
% Date:               Oct 30 2022, 10:35
% Dimension:          3
% Nodes:              100
% Expressions:        6
% Description:        Magnetic flux density, x component, Magnetic flux density, y component, Magnetic flux density, z component
% Length unit:        m
% x                       y                        z                        mf.Bx (T) @ freq=1000, Material Switch 1=Aluminum mf.By (T) @ freq=1000, Material Switch 1=Aluminum mf.Bz (T) @ freq=1000, Material Switch 1=Aluminum mf.Bx (T) @ freq=1000, Material Switch 1=Air      mf.By (T) @ freq=1000, Material Switch 1=Air      mf.Bz (T) @ freq=1000, Material Switch 1=Air
-0.03                     -0.005                   0.0015                   4.9534210086313584E-5-1.4604809192892852E-6i      2.033161913151573E-6+4.313130082785131E-7i        -2.9815380639839538E-5+1.0751009431144877E-5i     2.3428860579382637E-5-1.0164816017560427E-10i     2.393763533131742E-7-9.921897063302536E-13i       -6.240355471016457E-5+2.6137994250426896E-10i
-0.029393939393939392     -0.005                   0.0015                   5.794769185381754E-5-2.5483759308570328E-6i       3.0231266072464167E-6+3.098955546030366E-7i       -3.266021948100031E-5+1.2180135239538178E-5i      2.6605733411683293E-5-1.1525818227339609E-10i     6.238904498946977E-7-2.6241320579948933E-12i      -6.687531580751558E-5+2.798899214955141E-10i
-0.028787878787878786     -0.005                   0.0015                   6.554064196965961E-5-1.5223780209639408E-6i       2.0411520153216186E-6+8.2036169339722E-7i         -4.032396293313357E-5+1.668605021936531E-5i       2.9512833881350457E-5-1.2775239528153683E-10i     -1.9432695317267087E-8+8.099932365098694E-14i     -7.338227938202585E-5+3.068911870547474E-10i
-0.02818181818181818      -0.005                   0.0015                   7.552284239378541E-5+4.1233033890530034E-7i       2.3043405471012237E-6+5.34513505193552E-7i        -4.857112208193383E-5+1.9213988513953602E-5i      3.392564654971012E-5-1.466388104432163E-10i       -1.551029633832632E-7+6.701350501691663E-13i      -8.080301714539573E-5+3.3776117107105075E-10i
-0.027575757575757573     -0.005                   0.0015                   8.55050428179113E-5+2.3470386987744872E-6i        2.56752907888071E-6+2.486653169898569E-7i         -5.68182812307342E-5+2.1741926808541975E-5i       3.833845921807075E-5-1.6552522560489865E-10i      -2.907732314491136E-7+1.25927077668816E-12i       -8.82237549087667E-5+3.68631155087364E-10i
-0.02696969696969697      -0.005                   0.0015                   9.697202902828254E-5+5.777514105232963E-6i        3.187352322667116E-6+4.033754667127977E-7i        -6.859866249238312E-5+2.5137497850738804E-5i      4.395733963258668E-5-1.8958747548671285E-10i      -1.6659504188368441E-7+7.333561188585699E-13i     -9.797164137474325E-5+4.092601314297872E-10i
-0.026363636363636363     -0.005                   0.0015                   1.1200031034562334E-4+1.031875488245716E-5i       3.1862107173278025E-6+5.403438272817376E-7i       -7.848695368400466E-5+2.9427880149761414E-5i      5.191841463184821E-5-2.236555507175338E-10i       -5.867197373367093E-7+2.5169923599239042E-12i     -1.0648171325548844E-4+4.4457106220501144E-10i
-0.025757575757575757     -0.005                   0.0015                   1.2575579636271608E-4+1.524253048401979E-5i       2.8754981285976713E-6+6.330666242914166E-7i       -9.49483634447518E-5+3.0656000988252556E-5i       5.897715587299899E-5-2.5383280666901946E-10i      -7.401162805103362E-7+3.1483486643574886E-12i     -1.2018969346819144E-4+5.019734880693738E-10i
-0.02515151515151515      -0.005                   0.0015                   1.475838366404716E-4+2.263836587941331E-5i        5.644320142397932E-6+1.1628931370248684E-6i       -1.112467040304873E-4+3.373904369845368E-5i       7.188223107437177E-5-3.090076965568744E-10i       6.284112664470807E-7-2.668789845688153E-12i       -1.3238853786675699E-4+5.526632891363742E-10i
-0.024545454545454544     -0.005                   0.0015                   1.6709184123471174E-4+2.973402902059097E-5i       6.615820188397685E-6+1.1435071488889257E-6i       -1.3052230932741708E-4+3.541057824381616E-5i      8.351128304133525E-5-3.587107402396616E-10i       9.230508248762133E-7-3.924088175998397E-12i       -1.474260592884036E-4+6.154041973886567E-10i
-0.023939393939393937     -0.005                   0.0015                   1.913437178387508E-4+3.870619291890387E-5i        5.193097328874035E-6+8.546360857150167E-7i        -1.5446414994660167E-4+3.6092033322494394E-5i     9.933518936853256E-5-4.263793024282552E-10i       -9.344337568948648E-7+4.024694059078414E-12i      -1.660869714558755E-4+6.934560755396247E-10i
-0.02333333333333333      -0.005                   0.0015                   2.1806439085397063E-4+4.807662578412471E-5i       5.859163190446819E-6+1.7773373547276018E-6i       -1.8621751356816252E-4+3.392299403929741E-5i      1.1681919897474547E-4-5.011279852422445E-10i      -6.932160786881063E-7+3.0138230154216075E-12i     -1.8996918739669442E-4+7.935470687988696E-10i
-0.022727272727272728     -0.005                   0.0015                   2.5723235990963685E-4+6.171377255199294E-5i       7.336651547845121E-6+1.2897492044093751E-6i       -2.1315203480508946E-4+3.47990362434495E-5i       1.450746238909935E-4-6.218331878524053E-10i       1.2466646667752806E-7-4.770119112881769E-13i      -2.0841313434998108E-4+8.702057122110461E-10i
-0.022121212121212118     -0.005                   0.0015                   2.9810052584365994E-4+7.501730157030007E-5i       8.802021610389288E-6+1.6069232431316556E-6i       -2.553735242861459E-4+3.0216072806595398E-5i      1.769000149809218E-4-7.579520704988829E-10i       7.636428109405232E-7-3.233731274428555E-12i       -2.4104908757732442E-4+1.0070890244301977E-9i
-0.021515151515151515     -0.005                   0.0015                   3.4736354341220976E-4+8.956574921518916E-5i       9.304822946391931E-6+1.8334296447580518E-6i       -3.0450786380825873E-4+2.4166912549904076E-5i     2.171645629516304E-4-9.302056248100709E-10i       2.4972180535411115E-7-9.90125830393436E-13i       -2.7822898101504323E-4+1.162942364523734E-9i
-0.02090909090909091      -0.005                   0.0015                   4.149293405776523E-4+1.0683774120364659E-4i       1.1594303460803494E-5+1.6555590525047698E-6i      -3.561714358887758E-4+1.3477178513356788E-5i      2.75138762132771E-4-1.1782193081141512E-9i        2.95865112602816E-6-1.2611571669206827E-11i       -3.14045954171516E-4+1.3120714547469625E-9i
-0.020303030303030302     -0.005                   0.0015                   4.969677732329007E-4+1.2344046982176103E-4i       1.2801364814711888E-5+2.8096238907464565E-6i      -4.23842335826548E-4+2.7430303158512535E-6i       3.496346979263962E-4-1.4973629821737607E-9i       2.3407043310195318E-6-9.840955036207405E-12i      -3.6745245532106795E-4+1.536036995067474E-9i
-0.019696969696969695     -0.005                   0.0015                   6.146551226815615E-4+1.4236838625809206E-4i       1.4403020927574416E-5+2.8848262572263566E-6i      -5.037232225686378E-4-1.4069144881216145E-5i      4.6019401554397554E-4-1.9708920822674044E-9i      3.5543671483729156E-6-1.492720989830047E-11i      -4.289883615279113E-4+1.7926410675440025E-9i
-0.01909090909090909      -0.005                   0.0015                   7.586136904864163E-4+1.5956620290176742E-4i       7.990900470159629E-7+2.7283787850241985E-6i       -5.799056299858804E-4-3.762894718932212E-5i       5.994287554238423E-4-2.567617418651137E-9i        -1.112144155038762E-5+4.698148436881784E-11i      -4.8311834848027073E-4+2.013532155521988E-9i
-0.018484848484848486     -0.005                   0.0015                   9.025722582912711E-4+1.7676401954544235E-4i       -1.2804840833540321E-5+2.5719313128218235E-6i     -6.560880374031249E-4-6.118874949742744E-5i       7.386634953037083E-4-3.16434275503486E-9i         -2.5797250249149674E-5+1.0889017863592747E-10i    -5.372483354326319E-4+2.234423243499929E-9i
-0.017878787878787876     -0.005                   0.0015                   9.411667050914117E-4+2.0225213061516093E-4i       4.174925907100531E-5+5.211848680291599E-6i        -7.411558292965139E-4-9.4727120552917E-5i         7.721710857550102E-4-3.410155295821256E-9i        2.8612672190718794E-5-1.1489250444356645E-10i     -5.994840324449076E-4+2.492252018348833E-9i
-0.017272727272727273     -0.005                   0.0015                   0.0016229163149895209+2.0424287535561242E-4i      1.262959223742241E-5+3.7058815267783374E-6i       -8.052063172070017E-4-1.3587179644136888E-4i      0.0014637598128159623-6.268981867369519E-9i       -6.733104330192141E-7+1.9894520362735546E-12i     -6.391190435489965E-4+2.5930480264631332E-9i
-0.016666666666666666     -0.005                   0.0015                   0.002304665924887612+2.062336200960664E-4i        -1.649007459615659E-5+2.1999143732655095E-6i      -8.692568051175053E-4-1.770164723298198E-4i       0.002155348539876865-9.127808438917616E-9i        -2.9959293056758957E-5+1.188714085161665E-10i     -6.787540546531051E-4+2.693844034577381E-9i
-0.01606060606060606      -0.005                   0.0015                   0.003304093932380901+2.0501014035607002E-4i       2.5900128945448644E-5+3.4387598279076543E-6i      -4.0211402794859945E-4-2.2320753817585653E-4i     0.0031656615315020994-1.3269858080619617E-8i      1.1822510539369335E-5-4.66509032915137E-11i       -1.8937537288573562E-4+6.533703094880022E-10i
-0.015454545454545453     -0.005                   0.0015                   0.00437769540710586+1.897097030811387E-4i         -1.5084763414569685E-5+4.18511841923392E-6i       2.9786584267783855E-4-2.79401926210898E-4i        0.004258015727896809-1.7787882306272194E-8i       -2.9779037272031558E-5+1.317895489005966E-10i     5.340412735323138E-4-2.258756380262798E-9i
-0.014848484848484847     -0.005                   0.0015                   0.004693289655389735+1.596605028758126E-4i        4.779227941766051E-7+4.477777915360239E-6i        0.002211105746382322-3.2118489456164044E-4i       0.0045960532123968945-1.9370729647116133E-8i      -1.4458659631266454E-5+6.181810500592575E-11i     0.0024632673963628296-1.039279589599802E-8i
-0.01424242424242424      -0.005                   0.0015                   0.004570041634427043+1.21608305950028E-4i         4.641003680661351E-6+5.717239611098947E-6i        0.0034724820874217225-3.6257077953756524E-4i      0.004498194400499618-1.896698099858617E-8i        -1.068755980117124E-5+4.783445974274584E-11i      0.003735068649353872-1.5753203931650332E-8i
-0.013636363636363634     -0.005                   0.0015                   0.0034510612774254585+6.643577687087249E-5i       2.255208601587011E-6+5.357861620081594E-6i        0.004843639551689954-3.8960349170428095E-4i       0.003408146376812058-1.442739775120543E-8i        -1.2907873557496674E-5+5.172326781189324E-11i     0.0051107742157192534-2.1484211105676234E-8i
-0.013030303030303031     -0.005                   0.0015                   0.0024537753528627313+4.534800869453614E-6i       1.0566744331045198E-5+5.818751213445471E-6i       0.005071934701207651-3.919254884459393E-4i        0.002440554007999149-1.0468677133724604E-8i       -4.342613013178474E-6+2.4531141674421005E-11i     0.005332367024699057-2.2566993229001863E-8i
-0.012424242424242424     -0.005                   0.0015                   0.0017255846714771548-6.530081260532834E-5i       -1.623988080122485E-5+2.844386442678803E-6i       0.0052525997868095075-3.790630477650073E-4i       0.001741508065923192-7.509813744465942E-9i        -2.949722028734378E-5+1.2485828762379874E-10i     0.0054987755928490294-2.3358051148884254E-8i
-0.011818181818181818     -0.005                   0.0015                   0.0011901034562327804-1.2183279780251534E-4i      1.5465435637446515E-5+2.3795739673603585E-6i      0.005266528530620484-3.423056159927907E-4i        0.0012259921140253156-5.295121469946324E-9i       2.0294006658628095E-6-1.1574359217998934E-11i     0.005491178845259243-2.33907098131557E-8i
-0.011212121212121211     -0.005                   0.0015                   6.903698328774687E-4-1.7437464326831338E-4i       1.5124744640511185E-5+4.458624275229943E-6i       0.00524583892961073-2.938013972994052E-4i         7.434698494267943E-4-3.2142760876353656E-9i       2.0101111935930593E-6-8.993257280630948E-12i      0.005445771150101554-2.3244524220265466E-8i
-0.010606060606060605     -0.005                   0.0015                   2.930008577257023E-4-1.815079571448905E-4i        3.34342248087731E-5+6.828415059340125E-6i         0.005278995542654824-2.0558349519980896E-4i       3.4573687406518907E-4-1.50079690276024E-9i        1.9866230950883095E-5-8.152332379674438E-11i      0.005446826677865293-2.3258078774006475E-8i
-0.009999999999999998     -0.005                   0.0015                   -4.832848610806595E-5-1.722469104275182E-4i       2.48226188561075E-5-3.908977834688785E-7i         0.005288229011639166-1.3591901627645284E-4i       2.1170318920507477E-7-4.455456651291477E-13i      1.4205485671404766E-5-5.6798230038505076E-11i     0.0054299982776059175-2.319582098552756E-8i
-0.009393939393939392     -0.005                   0.0015                   -3.8845642504428375E-4-1.428293758263023E-4i      1.522232823047455E-5+8.005648564378583E-6i        0.005315941804620955-8.940534733005673E-5i        -3.505527984086099E-4+1.5160821323290504E-9i      1.920385344297143E-6-8.267843940401724E-12i       0.0054412003128455864-2.32386197949917E-8i
-0.008787878787878785     -0.005                   0.0015                   -7.799205989996419E-4-1.1156261546010942E-4i      1.5728876724099145E-5+3.4468480275283474E-6i      0.005329158880543295-6.260338470248567E-5i        -7.519831909187986E-4+3.2494952107925403E-9i      4.1107810086074906E-6-1.7170157261408213E-11i     0.005445256285841162-2.3239863036579225E-8i
-0.008181818181818179     -0.005                   0.0015                   -0.0012147630821541956-8.281910526172645E-5i      -5.830132288240329E-6+5.0156046056448246E-6i      0.005302885061360488-5.0384930432859445E-5i       -0.001195498889640159+5.164336596245067E-9i       -1.7800443831940925E-5+7.594736656569706E-11i     0.0054140695463233465-2.3080755779813542E-8i
-0.007575757575757576     -0.005                   0.0015                   -0.0017493381120087248-6.243999011667318E-5i      3.3901491225066943E-6+5.3101820388226704E-6i      0.0054449164667067194-4.325145438051619E-5i       -0.0017359675884881277+7.494482135274579E-9i      -8.631989907330849E-6+3.203733888422224E-11i      0.005552941940364204-2.3576627512284518E-8i
-0.0069696969696969695    -0.005                   0.0015                   -0.002435065308531454-4.717422927764573E-5i       -3.0278009710096344E-6+5.557599855494108E-6i      0.005197222971842774-4.442323234422462E-5i        -0.00242589766142601+1.0404038539564087E-8i       -1.4990541623598717E-5+7.175555569591896E-11i     0.005304816103835302-2.2456112303120887E-8i
-0.006363636363636363     -0.005                   0.0015                   -0.0035070484075799407-3.611424853568103E-5i      4.6326052407039825E-5+6.403317038584065E-6i       0.004981354430171054-4.407594398558878E-5i        -0.0035007543109714196+1.4804886628174256E-8i     3.4214046757441094E-5-1.300833950130326E-10i      0.005087993416724532-2.1402316470336197E-8i
-0.0057575757575757565    -0.005                   0.0015                   -0.004394575810314511-2.8657138036395702E-5i      5.721907767231564E-5+6.5752243000149465E-6i       0.003670043217355014-4.5497046736635315E-5i       -0.004389948307200828+1.8518129579474535E-8i      4.50130580184865E-5-1.9338211469269787E-10i       0.0037765511421909534-1.5938667895432997E-8i
-0.00515151515151515      -0.005                   0.0015                   -0.004636361072823892-2.215936936622527E-5i       1.5602616730116064E-5+6.959562688442565E-6i       0.0019438560818480163-4.6354948947177534E-5i      -0.004633306997108478+1.9511539213630145E-8i      3.444222876931337E-6-1.2187635936723363E-11i      0.002049900123556299-8.630851944726348E-9i
-0.0045454545454545435    -0.005                   0.0015                   -0.0041800446166691-1.8366806312644494E-5i        -1.2463408413895642E-5+7.474241195756554E-6i      8.257387795989751E-4-4.852783359438566E-5i        -0.004177558446263793+1.750810014357589E-8i       -2.4721570530825392E-5+1.040427404268684E-10i     9.319248947921854E-4-3.9395492055317235E-9i
-0.003939393939393937     -0.005                   0.0015                   -0.0032490135798823785-1.5109573669618659E-5i     1.5096964962293328E-4+7.99721709262934E-6i        -3.369104809433556E-4-4.94894423211786E-5i        -0.003247002668746231+1.3589636272184516E-8i      1.3861255329921155E-4-5.466311012336155E-10i      -2.3100912643369805E-4+8.037293812478171E-10i
-0.003333333333333334     -0.005                   0.0015                   -0.002279159544354872-1.2722720435261636E-5i      -6.5737144924245955E-6+8.307379576265425E-6i      -7.451155850038155E-4-5.1246327320350745E-5i      -0.0022774527549321386+9.628012647922662E-9i      -1.902191067517777E-5+7.604420904228617E-11i      -6.387013703510556E-4+2.5239790377197865E-9i
-0.0027272727272727275    -0.005                   0.0015                   -0.001487869671552245-1.0911957788890989E-5i      -3.762594344051788E-5+8.692813554080038E-6i       -7.564958080981381E-4-5.21636378754689E-5i        -0.0014861523837044197+6.348532687987814E-9i      -5.018330922959471E-5+2.1077791801376338E-10i     -6.501118974095096E-4+2.6609653224262134E-9i
-0.002121212121212121     -0.005                   0.0015                   -0.0010866688802568586-9.613345867801322E-6i      3.500844572227029E-5+9.184368569398036E-6i        -7.336701761149773E-4-5.320515702570859E-5i       -0.001084810753421298+4.640568989575129E-9i       2.2323584319665444E-5-9.569658612948284E-11i      -6.271187739358714E-4+2.5920819496882387E-9i
-0.0015151515151515145    -0.005                   0.0015                   -7.870138836267729E-4-8.628618758991363E-6i       1.0632178875307011E-5+9.336110102567834E-6i       -6.788724416556449E-4-5.412506322245768E-5i       -7.848514964521906E-4+3.362565465786942E-9i       -1.9824805343681247E-6+7.984913475480574E-12i     -5.721157623088348E-4+2.378996577861846E-9i
-9.09090909090908E-4      -0.005                   0.0015                   -5.880038368422847E-4-7.84799597287383E-6i        1.6470993119056376E-5+9.86672632418686E-6i        -6.052271544930231E-4-5.516860821623456E-5i       -5.855384014953804E-4+2.5074575321128512E-9i      3.564079225032088E-6-1.5519333095647422E-11i      -4.979278191238274E-4+2.0765866948255005E-9i
-3.030303030303015E-4     -0.005                   0.0015                   -4.508020070170917E-4-7.327287614554622E-6i       1.0839843930584604E-5+9.87252514009462E-6i        -5.079937953332018E-4-5.605131790922413E-5i       -4.478997401137411E-4+1.9182383414668893E-9i      -1.8962756335851125E-6+8.302154398013774E-12i     -4.001511070459261E-4+1.668933232389001E-9i
3.03030303030305E-4       -0.005                   0.0015                   -3.574011173794224E-4-6.989933473048639E-6i       1.5946832973846338E-5+9.852783220235712E-6i       -4.719211598318109E-4-5.696770598024354E-5i       -3.540484257963949E-4+1.5158382580636419E-9i      3.3421829982456356E-6-1.3974762493338893E-11i     -3.6357709159582166E-4+1.5195909322361227E-9i
9.090909090909115E-4      -0.005                   0.0015                   -2.7721505399298796E-4-6.6422019394017325E-6i     1.424782781319492E-5+9.92639165513956E-6i         -4.3049220112669157E-4-5.803331844031423E-5i      -2.7351260682437336E-4+1.1716578499516825E-9i     1.616218443487548E-6-6.836789003141606E-12i       -3.213864866969709E-4+1.3434726879517415E-9i
0.001515151515151518      -0.005                   0.0015                   -2.1532457154117444E-4-6.4927326261235365E-6i     1.0621766727760863E-5+1.060118117073594E-5i       -3.9979699664353247E-4-5.929816211928908E-5i      -2.1117350096391992E-4+9.048141125408116E-10i     -2.618936918305113E-6+1.1219279398844822E-11i     -2.8931515970995886E-4+1.2099948649863072E-9i
0.002121212121212121      -0.005                   0.0015                   -1.8342549653971053E-4-6.781061756359942E-6i      2.0730444852444323E-5+9.867948859275188E-6i       -3.48605365788302E-4-6.061184312942482E-5i        -1.7834139734154751E-4+7.642403753994979E-10i     8.377386830717528E-6-3.5872549437248543E-11i      -2.3739469383442143E-4+9.913466164849023E-10i
0.002727272727272731      -0.005                   0.0015                   -1.5179891032835358E-4-7.206800745408116E-6i      1.2491617034869704E-5+1.0380095342493712E-5i      -3.1852557325814327E-4-6.052131075040207E-5i      -1.4556276084994036E-4+6.240608204284741E-10i     -4.7004717090869987E-7+2.046067735627894E-12i     -2.0695631994691586E-4+8.638341995870139E-10i
0.003333333333333334      -0.005                   0.0015                   -1.301096935810088E-4-7.811157207495431E-6i       1.2540820223063635E-5+1.0876595873184503E-5i      -3.013628797810205E-4-6.217627226938715E-5i       -1.2266000095904808E-4+5.261267220350078E-10i     -9.253598502708196E-7+3.989661038995345E-12i      -1.8777305912980242E-4+7.839287300099069E-10i
0.003939393939393937      -0.005                   0.0015                   -1.0842047683366513E-4-8.415513669582733E-6i      1.2590023411257999E-5+1.137309640387524E-5i       -2.8420018630389524E-4-6.383123378837221E-5i      -9.975724106815569E-5+4.28192623641544E-10i       -1.3806725296322889E-6+5.9332543423636225E-12i    -1.6858979831268746E-4+7.040232604328002E-10i
0.004545454545454547      -0.005                   0.0015                   -9.529342086628647E-5-9.859457437443015E-6i       1.3429110921213752E-5+1.1155631596419151E-5i      -2.6442492855456557E-4-6.490414412421786E-5i      -8.470189191354287E-5+3.638867655246654E-10i      -4.2691117984727106E-7+1.8661460461975725E-12i    -1.4741828884674575E-4+6.15208200484264E-10i
0.00515151515151515       -0.005                   0.0015                   -8.306225616029823E-5-1.1076696895421784E-5i      1.282702174694862E-5+9.283249821514494E-6i        -2.458618363447352E-4-6.596732621940232E-5i       -7.083340402488622E-5+3.0457420192441016E-10i     8.397754544567609E-7-3.565712098296173E-12i       -1.2785550074474093E-4+5.33119905453904E-10i
0.00575757575757576       -0.005                   0.0015                   -7.284497969797267E-5-1.21940050124961E-5i        1.1929793346586912E-5+9.541715956273406E-6i       -2.4024273630337406E-4-6.814171138655648E-5i      -5.91116758310022E-5+2.544497601137008E-10i       -4.406208224246193E-7+1.9004132133510124E-12i     -1.1940435329636221E-4+4.982578912852456E-10i
0.006363636363636363      -0.005                   0.0015                   -6.473142178135393E-5-1.3692020256885488E-5i      1.2162430122166857E-5+8.723405672973273E-6i       -2.3189373026070645E-4-7.280616853599475E-5i      -4.901768063074311E-5+2.1132048246801756E-10i     4.384276945836995E-7-1.8531171919772028E-12i      -1.0596827223511261E-4+4.421001409189792E-10i
0.006969696969696973      -0.005                   0.0015                   -6.534085695013734E-5-1.8804628682696622E-5i      1.224417327369185E-5+9.306336331994084E-6i        -2.2334681567504587E-4-7.251252520933506E-5i      -4.4124738387839695E-5+1.9039672091292817E-10i    -2.583359826820479E-7+1.1198768237050044E-12i     -9.642104787468096E-5+4.023052609293056E-10i
0.007575757575757576      -0.005                   0.0015                   -6.627140219417956E-5-2.4548663024359478E-5i      1.4775543396861314E-5+1.0935975563572841E-5i      -2.222055911976278E-4-7.71412459423653E-5i        -3.896796374182375E-5+1.6834491445296968E-10i     3.587968802132367E-7-1.5143751293445023E-12i      -8.934582088203401E-5+3.7308076877570407E-10i
0.008181818181818186      -0.005                   0.0015                   -6.963819073789888E-5-3.375515592106232E-5i       1.3991497262606453E-5+9.96060234380715E-6i        -2.097437534957791E-4-7.310869706537556E-5i       -3.374175037431749E-5+1.459682554951014E-10i      1.373451236099906E-7-5.691129605714307E-13i       -7.932059030560623E-5+3.3111948155494073E-10i
0.008787878787878789      -0.005                   0.0015                   -7.229847506984221E-5-4.031439284951912E-5i       1.4333061895392528E-5+1.025289047521259E-5i       -2.1150240149818612E-4-7.852401612947415E-5i      -2.9536670631664388E-5+1.2792025911397503E-10i    -9.443157612496497E-8+4.2243255985790607E-13i     -7.353128103109482E-5+3.0716673490168206E-10i
0.009393939393939392      -0.005                   0.0015                   -8.13631707334971E-5-5.218291654308414E-5i        1.46665340288255E-5+1.0147264587259996E-5i        -2.0321790750675987E-4-7.339535253395726E-5i      -2.597532180957879E-5+1.1268608627227346E-10i     -3.7028509462843154E-8+1.741928092947455E-13i     -6.733759897998534E-5+2.814122170752599E-10i
0.010000000000000002      -0.005                   0.0015                   -9.042786639715298E-5-6.405144023664933E-5i       1.5000006162257694E-5+1.00416386993071E-5i        -1.949334135153324E-4-6.826668893844103E-5i       -2.241397298749311E-5+9.745191343057416E-11i      2.0374557199156693E-8-7.404694126903546E-14i      -6.114391692887478E-5+2.5565769924883223E-10i
0.010606060606060605      -0.005                   0.0015                   -1.0267545697202111E-4-7.312325855058484E-5i      1.2600314056690333E-5+8.344263710246328E-6i       -1.8626500202527585E-4-5.632482026098186E-5i      -2.0210744668895962E-5+8.797226773677246E-11i     1.8474603494844145E-7-7.4630306312041E-13i        -5.660603080211908E-5+2.368881291590262E-10i
0.011212121212121215      -0.005                   0.0015                   -1.0990570372692448E-4-7.905624763595074E-5i      1.70590637760768E-5+1.1359438250229845E-5i        -1.6730348528556997E-4-3.945031679833423E-5i      -1.814515664446217E-5+7.908959933552029E-11i      -3.265634407243986E-7+1.4257844588044746E-12i     -5.291585445535237E-5+2.2164917761117241E-10i
0.011818181818181818      -0.005                   0.0015                   -1.0975289115323201E-4-7.461979933676518E-5i      1.5816983546562647E-5+9.279552573567636E-6i       -1.5309392456686229E-4-2.6685424374179494E-5i     -1.664509199362401E-5+7.264435979973322E-11i      1.3003347236126284E-7-5.302720000254866E-13i      -4.871973214131049E-5+2.042233314852823E-10i
0.012424242424242428      -0.005                   0.0015                   -1.1553379257502007E-4-7.267706859593499E-5i      1.8538217833024748E-5+1.010189614260369E-5i       -1.3761178128445038E-4-1.3905524751382548E-5i     -1.4662382595301011E-5+6.4122209925985E-11i       -8.129868497828182E-8+3.660812097888819E-13i      -4.51381569539537E-5+1.8940134103863298E-10i
0.013030303030303031      -0.005                   0.0015                   -1.1684476112365535E-4-6.726741183607352E-5i      1.8777306202528326E-5+9.581435103014831E-6i       -1.236894771251125E-4-4.4769240860952715E-6i      -1.303035208273178E-5+5.711223858752735E-11i      4.561341092608842E-9-4.974154434951978E-15i       -4.1789299307303906E-5+1.7552967194120905E-10i
0.013636363636363641      -0.005                   0.0015                   -1.150234317538079E-4-5.988241011322847E-5i       2.014459278135837E-5+1.0315758344686325E-5i       -1.0700432741384328E-4+3.6393232114208403E-6i     -1.1772805592213497E-5+5.1688082832198674E-11i    3.130850507159362E-8-1.1351339647463936E-13i      -3.9263671300467654E-5+1.651445591673145E-10i
0.014242424242424244      -0.005                   0.0015                   -1.1172781479921318E-4-5.2901028112343346E-5i     1.8904646443331625E-5+8.725917419179587E-6i       -9.425262289568075E-5+1.0147194180923087E-5i      -1.0721019677905567E-5+4.715502001338028E-11i     1.1899064168664417E-8-3.092906109236641E-14i      -3.6575415777585166E-5+1.5401293373113628E-10i
0.014848484848484847      -0.005                   0.0015                   -1.0808305300409913E-4-4.5751322915995555E-5i     1.7942692257554975E-5+7.32834213727307E-6i        -8.298624101573787E-5+1.4080603928651203E-5i      -9.70356078554334E-6+4.277558550141415E-11i       -1.2514166573977033E-7+5.533738186081418E-13i     -3.4298842414889354E-5+1.4461484997353505E-10i
0.015454545454545457      -0.005                   0.0015                   -1.0535970555721123E-4-4.035415945132793E-5i      1.8788774905448887E-5+7.724321027863576E-6i       -7.150414438462058E-5+1.6840923919846067E-5i      -8.98679898764926E-6+3.967564439287446E-11i       7.185425760704192E-8-2.9274397949573117E-13i      -3.2125584768661196E-5+1.3565240787498332E-10i
0.01606060606060606       -0.005                   0.0015                   -9.950202068965245E-5-3.324055019220748E-5i       1.7419956978699915E-5+6.2783819208377795E-6i      -6.105970429214286E-5+1.9299440967486666E-5i      -8.061842666526302E-6+3.56760350075939E-11i       -4.324270402942653E-8+2.0333280539877007E-13i     -3.007693079288675E-5+1.271844267089102E-10i
0.01666666666666667       -0.005                   0.0015                   -9.435575888708096E-5-2.7708738218569363E-5i      1.6721732158368903E-5+5.677431771146682E-6i       -5.2422414521821484E-5+2.042922428806249E-5i      -7.382418619465513E-6+3.2737296626107195E-11i     -4.362026945111666E-8+2.040521012724426E-13i      -2.8224976876029808E-5+1.1954063269082835E-10i