% Model:              FEA.mph
% Version:            COMSOL 5.1.0.145
% Date:               Jun 24 2022, 10:55
% Dimension:          3
% Nodes:              100
% Expressions:        3
% Description:        Magnetic flux density, x component, Magnetic flux density, y component, Magnetic flux density, z component
% Length unit:        m
% x                       y                        z                        mf.Bx (T) @ freq=2000                             mf.By (T) @ freq=2000                             mf.Bz (T) @ freq=2000
-0.03                     0                        0.0015                   4.314264623734893E-5-3.3417203041419556E-5i       -1.0039433886847339E-7+1.2173680769911668E-7i     -8.75865893880586E-5+1.1460811026994119E-4i
-0.029393939393939392     0                        0.0015                   4.7445799458080943E-5-3.698773110674073E-5i       -6.98387830444462E-7+7.086466691540915E-7i        -9.601008075994333E-5+1.242393795236413E-4i
-0.028787878787878786     0                        0.0015                   5.2183246012297636E-5-4.1095958344169564E-5i      -1.5538840661955791E-7+1.4718399078420745E-7i     -1.0605384898056537E-4+1.3564038583912998E-4i
-0.02818181818181818      0                        0.0015                   6.0229125900955225E-5-4.875187838271691E-5i       -4.165827403385591E-8+1.3445471750783786E-8i      -1.141071399016892E-4+1.4474989457612933E-4i
-0.027575757575757573     0                        0.0015                   6.843315320387544E-5-5.6534892794021015E-5i       -5.478140117293803E-7+6.198570710871584E-7i       -1.2611833902157745E-4+1.5829956579812491E-4i
-0.02696969696969697      0                        0.0015                   7.595932617530487E-5-6.353460661105551E-5i        -4.172763018134122E-7+4.95628628598057E-7i        -1.4051218777310324E-4+1.744669583002682E-4i
-0.026363636363636363     0                        0.0015                   8.621797982073814E-5-7.351572005807959E-5i        6.881007542601774E-7-7.610739436291619E-7i        -1.5583064695206248E-4+1.9166781917834773E-4i
-0.025757575757575757     0                        0.0015                   9.955404785757583E-5-8.691137479985972E-5i        1.0102428594919218E-6-1.2041804652862531E-6i      -1.689439271175281E-4+2.0629269534330015E-4i
-0.02515151515151515      0                        0.0015                   1.130248943417829E-4-1.0044667090495455E-4i       -9.104340500105772E-7+1.015976989537492E-6i       -1.927108041068978E-4+2.3295352665280344E-4i
-0.024545454545454544     0                        0.0015                   1.2672966577092137E-4-1.1437073745117817E-4i      -8.605722753024384E-7+9.006706268930697E-7i       -2.1664230207649464E-4+2.5997923266292064E-4i
-0.023939393939393937     0                        0.0015                   1.5279860479977384E-4-1.4198182699143584E-4i      -5.749552658983019E-6+6.2769396954819555E-6i      -2.449305909020692E-4+2.916135355095699E-4i
-0.02333333333333333      0                        0.0015                   1.7610834331015322E-4-1.6710863454378065E-4i      -2.559411302428531E-7+4.1120594611966855E-7i      -2.722792657060399E-4+3.216454359752305E-4i
-0.022727272727272728     0                        0.0015                   2.1337377167995886E-4-2.078546652360451E-4i       -2.3091003249726483E-7+2.1348744072839827E-7i     -2.9125840130612155E-4+3.41350381744791E-4i
-0.022121212121212118     0                        0.0015                   2.6290356025463325E-4-2.637234961665628E-4i       -1.1597451685959161E-7+1.699245902438357E-7i      -3.437386562956937E-4+4.007188207534253E-4i
-0.021515151515151515     0                        0.0015                   3.149282089269579E-4-3.2232600811607525E-4i       -1.3255040520832127E-6+1.4224440393813828E-6i     -4.033289595027677E-4+4.6782075282147083E-4i
-0.02090909090909091      0                        0.0015                   3.888978603747127E-4-4.0675448980467225E-4i       -1.940325012518714E-6+2.3503073107744056E-6i      -4.3271382135129204E-4+4.976899020815561E-4i
-0.020303030303030302     0                        0.0015                   5.091751530860409E-4-5.46616049131202E-4i         -1.3508228076699135E-5+1.622168709098531E-5i      -5.038285864741299E-4+5.7728826493892E-4i
-0.019696969696969695     0                        0.0015                   6.225037568400608E-4-6.787595790204938E-4i        4.434912839742372E-6-5.200371749443638E-6i        -6.025638687115822E-4+6.899930530532613E-4i
-0.01909090909090909      0                        0.0015                   7.958434020920358E-4-8.831460761553791E-4i        1.3270393950624848E-6-1.9592976289283925E-6i      -6.996239491790202E-4+7.989513807479674E-4i
-0.018484848484848486     0                        0.0015                   0.0010752640725237446-0.0012145662399065827i      8.562103293414339E-7-1.0448687141369336E-6i       -8.072143525028574E-4+9.193983799261205E-4i
-0.017878787878787876     0                        0.0015                   0.001494571090136601-0.0017145990785110386i       -1.1650031651973779E-5+1.546940045002443E-5i      -8.528072655588394E-4+9.646282868120953E-4i
-0.017272727272727273     0                        0.0015                   0.0018872005056809699-0.002181092151741213i       2.3391678669222593E-6-3.260724394271719E-6i       -8.052428011228411E-4+8.96195329980358E-4i
-0.016666666666666666     0                        0.0015                   0.0030870564852513178-0.003616493892072057i       8.11235363941806E-5-9.783822857569726E-5i         -7.918110199414837E-4+8.707305565464432E-4i
-0.01606060606060606      0                        0.0015                   0.003958556768827192-0.00466031085853327i         -3.690490771154388E-5+4.3845736120710216E-5i      -3.9410912140398595E-4+3.7959127986800234E-4i
-0.015454545454545453     0                        0.0015                   0.0054076847573717645-0.0063980444833957135i      4.324608678259454E-5-5.184741303736676E-5i        5.798639190551338E-4-7.988363137206784E-4i
-0.014848484848484847     0                        0.0015                   0.006033148115269217-0.007150722452732913i        -3.108720650106078E-5+3.690143370825246E-5i       0.0028693841576822744-0.003553010403030113i
-0.01424242424242424      0                        0.0015                   0.005757978876070906-0.006827450112624327i        -1.7612634621782825E-5+2.0969330806007067E-5i     0.005591212193672166-0.006822423596409682i
-0.013636363636363634     0                        0.0015                   0.004598321997079052-0.005447846624380144i        -1.0496765313447424E-6+1.0465696790823393E-6i     0.00620707377303815-0.0075711711884399666i
-0.013030303030303031     0                        0.0015                   0.0032656389785469557-0.003862787639124074i       1.4343382845627157E-6-1.9042536162287675E-6i      0.006859334139681126-0.00836284943106375i
-0.012424242424242424     0                        0.0015                   0.002429029965734208-0.00287465196566836i         2.305929871956133E-6-2.817388836559322E-6i        0.006945400169030536-0.008473280077941323i
-0.011818181818181818     0                        0.0015                   0.0017309794781685433-0.00205497413809162i        6.892253417422993E-5-8.469539538608073E-5i        0.0070331568419473595-0.008584088535486926i
-0.011212121212121211     0                        0.0015                   9.365223295947778E-4-0.001114722636567271i        6.143604391670865E-6-7.57657947645049E-6i         0.006919970706196674-0.008449404705564293i
-0.010606060606060605     0                        0.0015                   4.5738382995872285E-4-5.567212147497119E-4i       -2.4133809383725265E-6+2.5373804258789154E-6i     0.006821481355721747-0.008332068577302915i
-0.009999999999999998     0                        0.0015                   -2.2746888782624458E-5+1.9048081585277838E-6i     -4.175188191167436E-7+3.195325905801802E-7i       0.006811918785644627-0.008315860815829409i
-0.009393939393939392     0                        0.0015                   -4.927251394510981E-4+5.49461524497856E-4i        -4.6293602706999094E-7+4.4410590314459576E-7i     0.006858988793025047-0.00836284453530171i
-0.008787878787878785     0                        0.0015                   -9.799285167677134E-4+0.001119226575728386i       -3.100028202259776E-6+3.8393861767141435E-6i      0.006876729344548946-0.008367296707572237i
-0.008181818181818179     0                        0.0015                   -0.0016249359572040227+0.0018829999467089333i     -1.4422462611654325E-5+1.7875709160032876E-5i     0.006932236077295137-0.008420491065397382i
-0.007575757575757576     0                        0.0015                   -0.0023314809077031717+0.0027203348550770227i     -1.7604994565417927E-5+2.129940571540638E-5i      0.006983616905962525-0.008463741606900822i
-0.0069696969696969695    0                        0.0015                   -0.003172911538764172+0.0037243482740408566i      -1.0734440330421521E-5+1.2923241010385014E-5i     0.006896830670684693-0.008339622912195739i
-0.006363636363636363     0                        0.0015                   -0.004493264349832649+0.005309701342073168i       6.443639974214321E-6-8.138745582121631E-6i        0.006315668955274689-0.007621709330664611i
-0.0057575757575757565    0                        0.0015                   -0.0056105603949289425+0.00665882120690379i       1.3540102931988707E-5-1.6698117195089457E-5i      0.005179399854861336-0.0062434672622676615i
-0.00515151515151515      0                        0.0015                   -0.006000984229892936+0.00713784425169303i        2.8009411097011632E-5-3.369612508726773E-5i       0.0028828543499585385-0.0034855069416030657i
-0.0045454545454545435    0                        0.0015                   -0.005399949637644957+0.006428928130027282i       -7.572971123209586E-6+9.071880078854663E-6i       9.258735768186664E-4-0.0011386327616047867i
-0.003939393939393937     0                        0.0015                   -0.004242403633799862+0.005051996830536796i       -7.73967792554826E-6+9.256172149091444E-6i        -2.746751430799739E-4+2.9850559209060367E-4i
-0.003333333333333334     0                        0.0015                   -0.002812156698020031+0.0033454173973526393i      -2.1170608132717837E-6+2.4997404803752494E-6i     -9.268975569529346E-4+0.0010793638250334026i
-0.0027272727272727275    0                        0.0015                   -0.0019521726188114104+0.0023201073833050475i     1.7361435831233975E-5-2.0691151078497134E-5i      -9.029339615923108E-4+0.0010494881951983396i
-0.002121212121212121     0                        0.0015                   -0.0014073549512338985+0.0016711515179040487i     3.569322095914318E-6-4.262626945663456E-6i        -8.549471279604703E-4+9.899752040089284E-4i
-0.0015151515151515145    0                        0.0015                   -0.0010012050344275513+0.0011870935824061686i     -9.925369232889093E-6+1.1791250411997273E-5i      -7.56248704480406E-4+8.701182845912655E-4i
-9.09090909090908E-4      0                        0.0015                   -7.786351849584213E-4+9.219666319980305E-4i       1.9141541413523577E-5-2.2772342126115746E-5i      -6.937540065755363E-4+7.932028054292663E-4i
-3.030303030303015E-4     0                        0.0015                   -6.096253246411145E-4+7.204451494766818E-4i       -4.638029788375466E-6+5.547288973012572E-6i       -5.881074309060249E-4+6.651905843091207E-4i
3.03030303030305E-4       0                        0.0015                   -4.5921598516114517E-4+5.409622393287485E-4i      -8.319984411534614E-6+9.833418249597173E-6i       -4.996652197548244E-4+5.57828505461609E-4i
9.090909090909115E-4      0                        0.0015                   -3.680921047785918E-4+4.317128284220701E-4i       2.0090309388512537E-6-2.3046730361515064E-6i      -4.682581425532285E-4+5.175956261456991E-4i
0.001515151515151518      0                        0.0015                   -2.9743179096783915E-4+3.4659591163126646E-4i     5.023254140509685E-6-5.5733618284812755E-6i       -4.0778949168225E-4+4.437798444558872E-4i
0.002121212121212121      0                        0.0015                   -2.396320399117493E-4+2.7666000482212075E-4i      -3.853157413228399E-6+4.0621508387797154E-6i      -3.6530246656104725E-4+3.908608221948012E-4i
0.002727272727272731      0                        0.0015                   -2.0039978604597525E-4+2.2855056875640607E-4i     -1.8214702603787554E-6+2.297761599886518E-6i      -3.3861479298751343E-4+3.5663659458980363E-4i
0.003333333333333334      0                        0.0015                   -1.6369864323364548E-4+1.8450896343742912E-4i     4.7197332415677574E-7-1.5937204828207936E-6i      -2.8562758729214384E-4+2.93814446914486E-4i
0.003939393939393937      0                        0.0015                   -1.4448020368384822E-4+1.5726203001832726E-4i     -1.0055385016294587E-7-2.3666669067394248E-7i     -2.642944098537272E-4+2.652788518001666E-4i
0.004545454545454547      0                        0.0015                   -1.2526176413404856E-4+1.3001509659922236E-4i     -6.730810244826133E-7+1.1203871014725292E-6i      -2.4296123241531126E-4+2.367432566858465E-4i
0.00515151515151515       0                        0.0015                   -1.1389743260423787E-4+1.1223817625074248E-4i     8.419687456005711E-7-3.090207822459192E-7i        -2.1833492254321385E-4+2.0536460186311879E-4i
0.00575757575757576       0                        0.0015                   -9.617692276224951E-5+8.578912404300253E-5i       -2.5670704417242625E-6+4.7040351046034835E-6i     -2.0155701685223445E-4+1.8882987848554012E-4i
0.006363636363636363      0                        0.0015                   -8.795856449193764E-5+7.15495432566059E-5i        9.753758048968689E-7-2.000981918685922E-6i        -1.8128652647319177E-4+1.6892009643159267E-4i
0.006969696969696973      0                        0.0015                   -8.281542269980438E-5+6.360452644825769E-5i       1.2178076752124897E-6-2.049115935221337E-6i       -1.6644991076203105E-4+1.5520520751055166E-4i
0.007575757575757576      0                        0.0015                   -7.767228090767297E-5+5.5659509639911006E-5i      1.4602395455283815E-6-2.0972499517569413E-6i      -1.516132950508712E-4+1.4149031858951173E-4i
0.008181818181818186      0                        0.0015                   -6.898839885512555E-5+4.337015130125932E-5i       8.393089257299237E-8-3.9474100804043344E-8i       -1.3665292773559616E-4+1.300496999145208E-4i
0.008787878787878789      0                        0.0015                   -6.226951933578992E-5+3.5898160414589734E-5i      -2.718278495083843E-7+2.9753401663236076E-7i      -1.226040294922911E-4+1.1890405340839487E-4i
0.009393939393939392      0                        0.0015                   -5.753455450220992E-5+3.1447287591590285E-5i      -2.0184412386674636E-7+2.1470154395347198E-7i     -1.1284058598319987E-4+1.1041985842027249E-4i
0.010000000000000002      0                        0.0015                   -5.279958966863084E-5+2.6996414768590618E-5i      -1.3186039822575893E-7+1.318690712741495E-7i      -1.0307714247410893E-4+1.0193566343215041E-4i
0.010606060606060605      0                        0.0015                   -4.806462483505133E-5+2.254554194559312E-5i       -6.18766725847715E-8+4.903659859526073E-8i        -9.331369896501719E-5+9.345146844402883E-5i
0.011212121212121215      0                        0.0015                   -4.4259448089742554E-5+2.060590723835837E-5i      3.90466638833329E-7-5.825569576213552E-8i         -8.526761959526787E-5+8.747048381435238E-5i
0.011818181818181818      0                        0.0015                   -3.991835160068434E-5+1.738419037816257E-5i       -3.162513817343864E-8+3.711017878418681E-8i       -7.965788849505119E-5+8.270887905065122E-5i
0.012424242424242428      0                        0.0015                   -3.7495056683909295E-5+1.598238466777021E-5i      -4.1884061275982885E-9-2.557783555716766E-9i      -7.301626642422615E-5+7.67621005300468E-5i
0.013030303030303031      0                        0.0015                   -3.495028185392126E-5+1.4505284382247945E-5i      4.044342506539681E-8-6.21212299744187E-8i         -6.613665184327855E-5+7.060545009471738E-5i
0.013636363636363641      0                        0.0015                   -3.240508839871036E-5+1.3008377686800078E-5i      6.633212355757072E-8-9.89113332410202E-8i         -5.938576472474971E-5+6.459949499242285E-5i
0.014242424242424244      0                        0.0015                   -2.9951180018392728E-5+1.155884127705594E-5i      -2.6144610701427443E-8-6.224836475812213E-10i     -5.545954417938916E-5+6.115483182618357E-5i
0.014848484848484847      0                        0.0015                   -2.8015459434681334E-5+1.0647277738627393E-5i     3.704278494462724E-8-1.3356547657542971E-8i       -5.167947439070088E-5+5.7551093776229815E-5i
0.015454545454545457      0                        0.0015                   -2.627226867696873E-5+9.791437628182379E-6i       3.910990885284287E-8-1.8122510526746502E-9i       -4.8016295780065055E-5+5.402313506282501E-5i
0.01606060606060606       0                        0.0015                   -2.4529077919256247E-5+8.935597517739288E-6i      4.117703276073324E-8+9.732045552193671E-9i        -4.435311716942922E-5+5.049517634942002E-5i
0.01666666666666667       0                        0.0015                   -2.2783304183783212E-5+8.029799957310789E-6i      8.415996777900786E-8-9.528593122669869E-8i        -4.0827238327673034E-5+4.708126897951572E-5i
0.017272727272727273      0                        0.0015                   -2.076044707841413E-5+6.918800568613481E-6i       2.462883905395279E-7-2.8064103625073753E-7i       -3.7339263203948155E-5+4.3714990212777505E-5i
0.017878787878787883      0                        0.0015                   -1.9361070766873664E-5+6.31955925935331E-6i       8.855186755667458E-8-2.606355864774113E-8i        -3.475684985375657E-5+4.1255795094096E-5i
0.018484848484848486      0                        0.0015                   -1.7956645556183263E-5+5.617551592505706E-6i      -1.9127275281439213E-7+1.1805016178359582E-7i     -3.229500521731649E-5+3.8753806836610964E-5i
0.01909090909090909       0                        0.0015                   -1.6951416012545668E-5+5.240430299266485E-6i      -7.815378828097356E-8+4.7344333913576855E-8i      -2.9840246615591825E-5+3.624642627685635E-5i
0.0196969696969697        0                        0.0015                   -1.5847554681071242E-5+4.748751938565561E-6i      1.1481501742188413E-9+2.3784722114257063E-8i      -2.7563199911508768E-5+3.393533801086243E-5i
0.020303030303030302      0                        0.0015                   -1.483242653131882E-5+4.309456381544917E-6i       -9.264497923596599E-8+1.099479863116105E-7i       -2.5456012365985333E-5+3.176027888283933E-5i
0.020909090909090912      0                        0.0015                   -1.3778432138130553E-5+3.799018589844801E-6i      -6.918394242857548E-8+4.8092746779823594E-8i      -2.3718241432976414E-5+2.9930934569501384E-5i
0.021515151515151515      0                        0.0015                   -1.3089934980843805E-5+3.5957478928196304E-6i     7.495301160573363E-8-6.768115994184405E-8i        -2.1863785551811477E-5+2.8018906263047383E-5i
0.022121212121212125      0                        0.0015                   -1.2284045681905154E-5+3.2497884024078513E-6i     -1.7680465892685088E-8-1.9421064443543237E-8i     -2.0210512635194566E-5+2.6290720465393275E-5i
0.022727272727272728      0                        0.0015                   -1.1621123333810029E-5+2.9982035076676513E-6i     4.939465875771989E-9-6.027202044978108E-9i        -1.8750142266788694E-5+2.47451056565472E-5i
0.02333333333333333       0                        0.0015                   -1.0958200985715066E-5+2.7466186129276165E-6i     2.7559397644473647E-8+7.366660353534294E-9i       -1.728977189838312E-5+2.3199490847701642E-5i
0.02393939393939394       0                        0.0015                   -1.0333312815388322E-5+2.487969105902831E-6i      -2.6080575193120124E-8+3.002589423525392E-8i      -1.6098891541430126E-5+2.1901121434197285E-5i
0.024545454545454544      0                        0.0015                   -9.750396588370745E-6+2.2402971587901475E-6i      2.4869116826221936E-9-1.8153369961762533E-9i      -1.4818730208321739E-5+2.0519815335994044E-5i
0.025151515151515154      0                        0.0015                   -9.280477116115299E-6+2.075144131535289E-6i       9.609717791954071E-10-4.039924936439674E-9i       -1.3808718610335544E-5+1.9445413237790816E-5i
0.025757575757575757      0                        0.0015                   -8.810557643859873E-6+1.9099911042804037E-6i      -5.649681242423908E-10-6.264512876802198E-9i      -1.2798707012349323E-5+1.8371011139587642E-5i
0.026363636363636367      0                        0.0015                   -8.340638171604474E-6+1.7448380770257758E-6i      -2.090908027712376E-9-8.489100817074937E-9i       -1.1788695414363047E-5+1.729660904138428E-5i
0.02696969696969697       0                        0.0015                   -7.899244670447002E-6+1.5435204639817628E-6i      -3.452640285833502E-8+5.5749477897195894E-8i      -1.0856809271005737E-5+1.6299228716750835E-5i
0.02757575757575758       0                        0.0015                   -7.493616102604942E-6+1.378494003872637E-6i       -2.2398855399299555E-8+2.2500473098853528E-8i     -1.001784981731409E-5+1.54010734410633E-5i
0.028181818181818183      0                        0.0015                   -7.016519845609202E-6+1.1443786240829474E-6i      4.132315727484098E-9-6.4022407503739186E-9i       -9.20755471805828E-6+1.4561764697073416E-5i
0.028787878787878786      0                        0.0015                   -6.673134387433482E-6+1.0109580811914955E-6i      2.941417190111678E-8-3.4691303879693866E-8i       -8.463151730157088E-6+1.3792393917190905E-5i
0.029393939393939396      0                        0.0015                   -6.36732171993482E-6+9.186613290904013E-7i        -2.929091791357486E-8+2.9788914072465715E-8i      -7.723361189264512E-6+1.302643902852471E-5i
0.03                      0                        0.0015                   -5.985754774306916E-6+7.3143701929894E-7i         5.455191528014051E-9-5.6792477106576815E-9i       -7.053790480846892E-6+1.2380698348125218E-5i
