% Model:              FEA.mph
% Version:            COMSOL 6.0.0.318
% Date:               Oct 30 2022, 10:35
% Dimension:          3
% Nodes:              900
% Expressions:        3
% Description:        Current density, x component, Current density, y component, Current density, z component
% Length unit:        m
% x                       y                        z                        mf.Jx (A/m^2) @ freq=1000, Material Switch 1=Aluminum mf.Jy (A/m^2) @ freq=1000, Material Switch 1=Aluminum mf.Jz (A/m^2) @ freq=1000, Material Switch 1=Aluminum
-0.028999999999999998     -0.028999999999999998    -0.001                   1826.3842650402041+2727.4076318528364i            -1814.9244519646368-2715.853157184793i            31.2720935997398-68.45154161219065i
-0.026999999999999996     -0.028999999999999998    -0.001                   4979.132190865205+7159.3120266815i                -1318.0886408036197-1370.3007680755045i           -75.4208481735274+143.93096193015347i
-0.024999999999999998     -0.028999999999999998    -0.001                   6863.121187619125+10047.729940965632i             -764.8103009887767-1093.451137811272i             33.163144698215575+105.13499373932395i
-0.023                    -0.028999999999999998    -0.001                   7933.765546495001+12208.952399114758i             -311.06743371816276-948.0142863728213i            17.88381700957745+121.02469803120218i
-0.020999999999999998     -0.028999999999999998    -0.001                   8170.573934429003+14042.778670779664i             106.638096870264-858.7940749059541i               -7.345888542908004+136.11539924237653i
-0.018999999999999996     -0.028999999999999998    -0.001                   7959.180461120221+15372.079128757401i             365.01725983809246-784.0953534772183i             -37.98705841522965+88.21306243449327i
-0.016999999999999998     -0.028999999999999998    -0.001                   6866.178515193618+16724.33855018589i              781.0582092932947-735.5377458524329i              -9.33716936391577+182.01326304242804i
-0.014999999999999998     -0.028999999999999998    -0.001                   5476.41923736674+17597.752004500635i              775.9671691952332-394.1149186405918i              -178.80033267704528+259.91085632016245i
-0.012999999999999998     -0.028999999999999998    -0.001                   3683.50816626037+18341.421468485554i              890.3037498254726-111.18860211213214i             175.66009670773673+9.217207544557954i
-0.010999999999999996     -0.028999999999999998    -0.001                   1860.7932829729164+18440.38099805457i             1111.9668599722813-0.9933804449718802i            -129.90129582890717+79.49788799291306i
-0.008999999999999998     -0.028999999999999998    -0.001                   -329.7751404074563+18269.35357012389i             977.9528419027322+383.2313480146907i              96.06805675385326-47.76315026602974i
-0.006999999999999999     -0.028999999999999998    -0.001                   -2525.093494329989+17581.557311133736i            1124.5631015641732+585.1376195790233i             -164.7254213688523-96.69210059934444i
-0.0049999999999999975    -0.028999999999999998    -0.001                   -4916.864170193762+16412.522221658597i            1185.4073433767303+623.0758402332863i             -101.57874673726823-263.66487335687094i
-0.0029999999999999957    -0.028999999999999998    -0.001                   -7607.542934338101+14843.242139309696i            1342.6985668747645+864.0315199891949i             103.64483317042263+19.509150902056934i
-9.999999999999974E-4     -0.028999999999999998    -0.001                   -9903.960060635878+13282.456823971415i            1329.8419129425488+1018.2852764645698i            -123.52546973267135-279.45434553544436i
0.0010000000000000009     -0.028999999999999998    -0.001                   -12343.218439824537+11367.716194038636i           1026.1975261481161+865.2659340358227i             -103.45754153464114-202.63062197058423i
0.0030000000000000027     -0.028999999999999998    -0.001                   -14472.88390458755+9385.321002022318i             888.2791596982036+946.9922738259194i              -101.51884707514108-260.50430477704003i
0.0050000000000000044     -0.028999999999999998    -0.001                   -16155.413840857842+7266.519889658693i            665.411803705415+874.4534797487037i               -159.76981214219794-427.8879448438393i
0.007000000000000006      -0.028999999999999998    -0.001                   -17229.30691271164+5477.715986180256i             392.84593340085337+880.9830967126022i             72.4738255365701+165.8002836976971i
0.009000000000000001      -0.028999999999999998    -0.001                   -17674.267101977588+3910.071176921262i            102.65068945071464+875.4717742862872i             -60.55372888257658-334.51779938982827i
0.011000000000000003      -0.028999999999999998    -0.001                   -17640.837898700032+2098.938613838304i            -202.13398758990843+739.3301825136849i            -57.974355499772734-427.997799673736i
0.013000000000000005      -0.028999999999999998    -0.001                   -16877.402568039575+1276.9910848879715i           -478.97958879124167+665.1521448447562i            -26.98304707217709-154.19398209741746i
0.015                     -0.028999999999999998    -0.001                   -15749.648747993513+36.33725924437476i            -684.0874104187939+395.34214788174927i            -42.99198580567533-105.93333646622432i
0.017                     -0.028999999999999998    -0.001                   -14256.708483050314-946.1550883354769i            -805.0222762839873+430.5270818208451i             -20.743996931639945+36.57772904012024i
0.019000000000000003      -0.028999999999999998    -0.001                   -12477.206146750967-1732.3113918706797i           -909.3856835995033+208.53218940870363i            -36.00511722393932+166.8750425790113i
0.021000000000000005      -0.028999999999999998    -0.001                   -10559.06605009967-2419.7784683048394i            -1011.4491970183036+185.48566780588735i           11.869666918848132-294.83841943192255i
0.023000000000000007      -0.028999999999999998    -0.001                   -8442.755897427378-2835.124117596664i             -1095.0766158631889+116.34183505933437i           -48.713506866616775+110.80286469949382i
0.025                     -0.028999999999999998    -0.001                   -6179.860667719046-2897.1041206605455i            -1175.9074101507663-42.433699490708904i           9.238331993940406-92.88727282412837i
0.027000000000000003      -0.028999999999999998    -0.001                   -3730.152908884031-2510.2602611618604i            -1266.6899492029893-393.0718759416705i            17.655891713231505-111.28817889319456i
0.029000000000000005      -0.028999999999999998    -0.001                   -1238.9846066284783-1096.4631011805452i           -1244.887848290574-1057.5129943801646i            0.4153545091528577-34.27395449525336i
-0.028999999999999998     -0.026999999999999996    -0.001                   1308.567799577826+1755.109367616288i              -4883.0075427032725-7180.49157235638i             -120.0465179217434-150.94261731278587i
-0.026999999999999996     -0.026999999999999996    -0.001                   3650.1353934607+4737.807488498988i                -3698.2193720918135-4634.63026987494i             53.73967569361476-60.756246926721154i
-0.024999999999999998     -0.026999999999999996    -0.001                   5240.1760371319415+6993.094589826959i             -2160.952426729427-3363.338487743668i             74.81425954303401-75.25446055783782i
-0.023                    -0.026999999999999996    -0.001                   5847.810104714576+8877.393435836984i              -772.1824192978802-2816.2659263986384i            7.5168653717459515+6.6285269669771445i
-0.020999999999999998     -0.026999999999999996    -0.001                   5836.062845372493+10518.724700666755i             269.34571178539653-2400.552036601731i             87.12927046090547-30.83236395405072i
-0.018999999999999996     -0.026999999999999996    -0.001                   4932.185716980674+12054.64073528785i              1224.8545861018356-2092.20688200289i              101.64710762915763-75.08652923665585i
-0.016999999999999998     -0.026999999999999996    -0.001                   3567.7631949729957+13379.212913898376i            1984.3481356808588-1770.2696389737462i            146.26398861802616-166.89953642124712i
-0.014999999999999998     -0.026999999999999996    -0.001                   2015.2835951034867+14426.303822582946i            2495.849823898184-1295.6885247886617i             316.5474155814755-83.04746838243199i
-0.012999999999999998     -0.026999999999999996    -0.001                   -42.777299812130664+15361.495838059742i           2821.807140816494-900.2898440060643i              -186.90390080332213-83.43111837109247i
-0.010999999999999996     -0.026999999999999996    -0.001                   -1924.276755754364+15977.969116880608i            3101.284169807274-118.4408892075906i              406.69411573141997+302.8891879446187i
-0.008999999999999998     -0.026999999999999996    -0.001                   -3925.9671510584008+16160.598008275721i           3164.6050477642398+534.1312897730788i             41.67582853750899+27.67720573633362i
-0.006999999999999999     -0.026999999999999996    -0.001                   -6208.664997327889+16055.961458686945i            3369.957325030909+1043.9282679317137i             -290.8231036797147-99.40920910236679i
-0.0049999999999999975    -0.026999999999999996    -0.001                   -8280.129878764195+15594.033747048392i            3633.4131361852833+1806.334166882461i             334.0454571286483-85.59799179359399i
-0.0029999999999999957    -0.026999999999999996    -0.001                   -10355.678445083+14830.993941964203i              3609.327492688224+2275.854056979403i              368.2150036546719-45.04990832008087i
-9.999999999999974E-4     -0.026999999999999996    -0.001                   -12605.205252689106+14019.756784784027i           3505.117265680612+2374.2313182654866i             134.97153280479134+233.54230853166823i
0.0010000000000000009     -0.026999999999999996    -0.001                   -14835.439958448838+12388.992240743677i           3316.0880335381266+2661.068434068929i             202.14507897696993+412.2051751720819i
0.0030000000000000027     -0.026999999999999996    -0.001                   -16583.64279794368+11341.713697762409i            2872.3080478773823+2758.7792800283346i            37.63679014598424+92.75979990647856i
0.0050000000000000044     -0.026999999999999996    -0.001                   -18208.035740905612+9616.120990715091i            1955.6829181580858+2332.391622709701i             114.32360512475847+680.3754183514357i
0.007000000000000006      -0.026999999999999996    -0.001                   -18968.813796264643+8337.841111527225i            1140.2533767755826+2435.251792199517i             -87.29500941275604+135.56961024077964i
0.009000000000000001      -0.026999999999999996    -0.001                   -19164.034313906537+6989.365882406832i            145.3825457243104+2310.1402938734377i             158.5774482170602+412.4887096450509i
0.011000000000000003      -0.026999999999999996    -0.001                   -18703.526844878987+5772.956219517763i            -778.9258000850941+2095.724003804613i             196.97987657842276+510.54329368059445i
0.013000000000000005      -0.026999999999999996    -0.001                   -17783.780634571132+4417.181301851805i            -1547.3557917353235+1731.7157245790142i           -91.66606326034326-291.1746952175858i
0.015                     -0.026999999999999996    -0.001                   -16412.543568992452+3285.7275200861363i           -2096.5661661967924+1597.1998546003247i           -49.88715279170123-117.14698852299314i
0.017                     -0.026999999999999996    -0.001                   -14749.357008136662+2137.074571693816i            -2514.9322367768164+1388.9942807348834i           25.337667734933298+283.6316267005528i
0.019000000000000003      -0.026999999999999996    -0.001                   -12861.42154933751+1183.8132022864i               -2790.6107154096235+1217.3235791207815i           35.20712149584885-194.40269909707953i
0.021000000000000005      -0.026999999999999996    -0.001                   -10829.598108598382+350.5043457528348i            -3042.7936820453947+985.8662874237997i            41.38270718890713+13.469557723717566i
0.023000000000000007      -0.026999999999999996    -0.001                   -8688.249461426263-458.99309896495186i            -3277.367053086067+580.4951480585347i             -18.850327082781842+158.85112712671045i
0.025                     -0.026999999999999996    -0.001                   -6421.446377098911-947.4512762336568i             -3541.4513038906953+124.65451268748986i           -17.922037543508843+203.29857961589204i
0.027000000000000003      -0.026999999999999996    -0.001                   -3962.38262428979-1083.6738349281486i             -3808.362631146569-889.6037225339085i             -32.0026264793191+83.08109609269111i
0.029000000000000005      -0.026999999999999996    -0.001                   -1348.6438206045104-489.58034847286586i           -3796.329393361766-2544.0421619426234i            -2.847288148728485+14.085287145956862i
-0.028999999999999998     -0.024999999999999998    -0.001                   777.582070242028+1372.86466764028i                -6938.9706835448815-10289.788614972602i           -119.64473508418082-295.95466575221667i
-0.026999999999999996     -0.024999999999999998    -0.001                   1902.8306917375637+3724.7120181773794i            -5304.756662150969-6911.202207573605i             -189.98455585768957+108.49473609043643i
-0.024999999999999998     -0.024999999999999998    -0.001                   2370.6620476162866+5822.293167987602i             -2858.873905504036-5371.315877433365i             7.548585855239881-102.4989900539281i
-0.023                    -0.024999999999999998    -0.001                   2315.108244562533+7571.945670856606i              -880.6576002730328-4658.959513190748i             72.17177196922212+51.28992290474041i
-0.020999999999999998     -0.024999999999999998    -0.001                   1096.4591131710442+9000.3975263604i               1378.5170837719131-3965.1638058267413i            81.49036596749237+80.64732952814622i
-0.018999999999999996     -0.024999999999999998    -0.001                   -798.3601376861217+10427.52622559735i             2835.0951155520706-3718.7455978413436i            -292.1579419487983-43.47050465462494i
-0.016999999999999998     -0.024999999999999998    -0.001                   -3243.8556973749355+11579.261234216507i           4089.8774971936364-2872.6988868047824i            -326.51720502984506+141.04964441351666i
-0.014999999999999998     -0.024999999999999998    -0.001                   -5962.474342766139+12763.407518341965i            4567.109110778049-2472.7540043841864i             -189.76856830470686-266.6146393940865i
-0.012999999999999998     -0.024999999999999998    -0.001                   -8546.683454757642+13716.630301961282i            4914.60318505029-1690.4466041270512i              45.84934409922244-334.5443828578167i
-0.010999999999999996     -0.024999999999999998    -0.001                   -10590.8573800286+14804.930897352486i             5092.855319814383-710.1354351305476i              314.03439671221935-139.9080336201709i
-0.008999999999999998     -0.024999999999999998    -0.001                   -12732.177737055166+14950.082452500792i           5289.691398478125+384.50842124421985i             215.6028745297954-72.1222838111669i
-0.006999999999999999     -0.024999999999999998    -0.001                   -14572.04157235896+15046.938499380885i            5308.5590370992695+1157.034442681283i             245.4824829546121+437.31423819457865i
-0.0049999999999999975    -0.024999999999999998    -0.001                   -16199.394597486624+15139.774441160049i           5509.757235793761+1972.5878299548006i             -171.54389706765218-575.7236887830143i
-0.0029999999999999957    -0.024999999999999998    -0.001                   -17993.169736780965+14575.826196902197i           5661.669368458754+2876.9649656212637i             -210.8293710920746-703.4815697096233i
-9.999999999999974E-4     -0.024999999999999998    -0.001                   -19655.07390758541+13823.588247249501i            5545.972857979123+3513.857010683173i              21.12598532214409-520.0362208880209i
0.0010000000000000009     -0.024999999999999998    -0.001                   -21272.38672315678+12842.906291951658i            5047.0575640971065+3848.3675908195946i            202.44144230579573-203.7812319134899i
0.0030000000000000027     -0.024999999999999998    -0.001                   -22657.34672374064+11669.473055451848i            4073.9186002163597+3887.540838632476i             289.3787901641533+179.22197917302898i
0.0050000000000000044     -0.024999999999999998    -0.001                   -23442.508071203945+10609.49531274994i            2970.6447312678197+4111.339189740995i             389.99960891740733+333.9811450717245i
0.007000000000000006      -0.024999999999999998    -0.001                   -23824.41818150439+9362.651522081023i             1343.3696340302781+3656.1562866457352i            -143.18031712315857+19.570629763333017i
0.009000000000000001      -0.024999999999999998    -0.001                   -23385.536634392327+8058.589992622617i            -285.61581836255294+3476.448551277736i            57.772853095384+477.4848293436935i
0.011000000000000003      -0.024999999999999998    -0.001                   -22340.30322039769+6921.842399914978i             -1848.766664480775+3168.2076354839114i            41.39225829410406+426.75032879154577i
0.013000000000000005      -0.024999999999999998    -0.001                   -20582.85583569054+5636.22505863769i              -3045.58230947521+3017.1363308986975i             -10.251021428860781+161.96930252709174i
0.015                     -0.024999999999999998    -0.001                   -18348.983983273974+4589.706882918585i            -4000.843836455588+2595.011747114573i             69.94464281188152+199.4602778190619i
0.017                     -0.024999999999999998    -0.001                   -15988.556015472826+3617.834189845999i            -4525.535667069994+2555.175496359844i             71.24237890091831+193.726946729443i
0.019000000000000003      -0.024999999999999998    -0.001                   -13613.967285575645+2480.7412400290764i           -4986.388842337312+2234.1349479269493i            110.06590385679226+589.4720345243164i
0.021000000000000005      -0.024999999999999998    -0.001                   -11276.137255195863+1442.3216420981737i           -5255.779044234975+1823.5338632700589i            38.2874357605549+333.7542896343179i
0.023000000000000007      -0.024999999999999998    -0.001                   -8918.621577629992+647.3654743286254i             -5539.671106611809+1299.7448600086818i            37.898173328323125+169.58839507872625i
0.025                     -0.024999999999999998    -0.001                   -6528.43324111455-56.5646876719644i               -5922.328100890713+489.0680855594331i             20.943446763205262+11.982340462178053i
0.027000000000000003      -0.024999999999999998    -0.001                   -4013.3089400238136-409.6572339063894i            -6376.91817857716-836.6315665979384i              -1.0660129727540022+8.102803807420308i
0.029000000000000005      -0.024999999999999998    -0.001                   -1370.0615485829298-294.7999388902659i            -6456.400061568798-3287.8031152835993i            46.79882948837688-80.57810110101518i
-0.028999999999999998     -0.023                   -0.001                   -1.0336219395275503+1009.5293513962343i           -7595.16816108576-12752.554431003637i             -35.92027214206261-315.7419804868576i
-0.026999999999999996     -0.023                   -0.001                   -6.911802690310882+3371.752269152152i             -5511.227018149497-9002.610243647927i             -171.02107027203638+93.88839292194056i
-0.024999999999999998     -0.023                   -0.001                   -815.3410986647253+5442.148585508462i             -2323.987473788634-7136.498418921552i             215.68529941824738+39.470935511040025i
-0.023                    -0.023                   -0.001                   -2620.654021367888+7169.340201943224i             922.4539680164711-6095.28778114337i               195.53338844453697+175.68228624446726i
-0.020999999999999998     -0.023                   -0.001                   -5473.530136343718+8415.96842612432i              3733.3390597428725-5400.94742838267i              12.74600066896995+38.927450092763785i
-0.018999999999999996     -0.023                   -0.001                   -9310.12639524434+9537.454770082386i              6036.352495922711-4642.680991286072i              135.4548808943025-56.32958800794987i
-0.016999999999999998     -0.023                   -0.001                   -13744.346478433574+10332.543320663102i           7521.217892287906-3920.723983096912i              74.52865189721014-30.333357603791885i
-0.014999999999999998     -0.023                   -0.001                   -17977.845584135906+10758.511922438876i           8080.013489991547-3152.3954711547085i             -116.57772800943816-248.50220248752498i
-0.012999999999999998     -0.023                   -0.001                   -21729.253829067653+11141.686818055518i           7951.257768275211-2433.7741434301643i             -235.487752155777-428.37676269080475i
-0.010999999999999996     -0.023                   -0.001                   -24936.75714061406+11655.81605314037i             7304.086850720875-1600.2440011447652i             -302.34442014832763-653.0521723659386i
-0.008999999999999998     -0.023                   -0.001                   -26918.1240850862+12449.773374346612i             6838.321693720614-569.3635765182937i              -227.13303740560326-671.8832144217558i
-0.006999999999999999     -0.023                   -0.001                   -28131.552441091637+13314.883672964686i           6608.078894348081+887.6871630414784i              197.548726759397+372.442647122378i
-0.0049999999999999975    -0.023                   -0.001                   -28981.060048375908+13964.644631693518i           6732.938296666159+2302.5231666862182i             179.56190882145225+250.81414149932863i
-0.0029999999999999957    -0.023                   -0.001                   -29805.539369531616+13865.43482733338i            6911.338399137373+3412.554659145928i              186.88857069710528-122.89719160863763i
-9.999999999999974E-4     -0.023                   -0.001                   -30781.827303293274+13204.492540816544i           6882.829772201289+4233.328677045043i              100.32399876040654+344.26378581020793i
0.0010000000000000009     -0.023                   -0.001                   -31800.272528641883+12347.040512315652i           6365.3718719796525+4776.065083720864i             -40.314154123921575+521.6733817764042i
0.0030000000000000027     -0.023                   -0.001                   -32723.46092981981+11492.525104144132i            5060.738110598811+4910.1462962980295i             55.305130900051445+1084.3121075761082i
0.0050000000000000044     -0.023                   -0.001                   -32971.90999828569+10244.742333004886i            3265.529549592341+5160.325152782413i              -111.80519346043609+621.6762603191532i
0.007000000000000006      -0.023                   -0.001                   -32359.787525244945+9312.556892667457i            802.6020646307394+4765.263465730986i              198.65703515509279+891.3710703709355i
0.009000000000000001      -0.023                   -0.001                   -30824.34705937528+8360.347719198044i             -1640.2984786098548+4679.812929521898i            327.21899274647586+983.695094191952i
0.011000000000000003      -0.023                   -0.001                   -28357.629970567006+7131.613022828848i            -3938.2795846186777+4372.75193953467i             -188.6094923906645-566.5135317702569i
0.013000000000000005      -0.023                   -0.001                   -25053.16511039083+6563.465250352898i             -5824.639484211328+3769.1437612953196i            -155.78785504438298-540.9110736950348i
0.015                     -0.023                   -0.001                   -21929.62719143486+5316.916395520828i             -6797.454862136227+3957.729560103678i             102.97086263585864+111.61598778399974i
0.017                     -0.023                   -0.001                   -18567.618840984636+4121.096416771743i            -7415.467639821073+3542.907115424028i             82.70453936121673-66.31626423964819i
0.019000000000000003      -0.023                   -0.001                   -15296.126232874976+3117.2024334977655i           -7724.891223537335+3180.789901975809i             -48.720753638783854-31.478236217810203i
0.021000000000000005      -0.023                   -0.001                   -12274.982800999878+2103.054021167024i            -7827.260040271067+2865.2488726841775i            65.5227723825399+100.3109413676219i
0.023000000000000007      -0.023                   -0.001                   -9494.864427175207+1112.3568330928222i            -8079.862950340337+2120.3466912732315i            6.6867350752505645+166.05194863496558i
0.025                     -0.023                   -0.001                   -6791.425496252983+491.68047572448546i            -8440.973926176042+1287.2239536734455i            3.506104154914861+69.96438510898014i
0.027000000000000003      -0.023                   -0.001                   -4203.451110542068+64.92533613860614i             -9042.588801125776-409.8907027878806i             1.9445157042821983-64.59635438278713i
0.029000000000000005      -0.023                   -0.001                   -1420.6424333204448-281.0253626445004i            -9213.657732978685-3643.324348763515i             -3.0192917198874243-31.517571189101112i
-0.028999999999999998     -0.020999999999999998    -0.001                   -619.9319037139627+812.2919819363406i             -6950.07779318604-15027.860499162203i             -229.75325949463024-167.29511549845355i
-0.026999999999999996     -0.020999999999999998    -0.001                   -2256.2733806749748+3079.686163709216i            -4257.653007903139-10991.827268173585i            64.97691554089712-121.33383116495105i
-0.024999999999999998     -0.020999999999999998    -0.001                   -4583.261845812871+5174.332129127913i             -170.02503193937366-8860.866967223488i            232.0136946122898+205.8706481226877i
-0.023                    -0.020999999999999998    -0.001                   -8571.800010213221+6478.489180257404i             4290.8015239886845-7454.974742541583i             -41.01828917653265+56.6451696725331i
-0.020999999999999998     -0.020999999999999998    -0.001                   -13951.388300051041+7177.969246771874i            8471.218493301765-6266.385857687438i              77.09716886680151+327.81968209045556i
-0.018999999999999996     -0.020999999999999998    -0.001                   -20466.53394040979+7227.899953218466i             11864.729077340666-4795.578947369667i             82.03271446544157+1032.153036419782i
-0.016999999999999998     -0.020999999999999998    -0.001                   -28109.780492426693+6477.885883493712i            13241.588941651124-4460.118577437627i             -228.19841670149313-771.1294638902195i
-0.014999999999999998     -0.020999999999999998    -0.001                   -35588.605755982666+5803.35553396388i             13278.756290537383-3219.8949035772052i            -102.38094152118664-603.9963359779679i
-0.012999999999999998     -0.020999999999999998    -0.001                   -41688.45152478009+5438.783951258923i             12192.563589943156-1967.0536443352585i            140.49799561349917+1027.2506008504179i
-0.010999999999999996     -0.020999999999999998    -0.001                   -45463.1060155434+5796.637652819038i              10157.834239043828-1832.8709073862547i            98.07042541226468+638.7636875071745i
-0.008999999999999998     -0.020999999999999998    -0.001                   -47456.89474574322+7010.397748897244i             8157.7470413364545-1548.0629874863575i            -102.00674958898296-32.05379054613426i
-0.006999999999999999     -0.020999999999999998    -0.001                   -47992.4098644263+7816.261276885816i              7196.001344626744-286.350683430427i               -64.87637793343384+553.8993041314055i
-0.0049999999999999975    -0.020999999999999998    -0.001                   -47789.216484896555+8995.121234473481i            7041.167891359959+1330.7700168993301i             -33.176737882153176+655.0893199676312i
-0.0029999999999999957    -0.020999999999999998    -0.001                   -47474.004884155074+9776.073005630882i            7262.239705783754+3227.6287411894423i             67.41381157166406+666.0360436329422i
-9.999999999999974E-4     -0.020999999999999998    -0.001                   -47398.59042268295+10459.399371823954i            7410.116975559399+4765.1810643936515i             122.86290054179231+591.718814289682i
0.0010000000000000009     -0.020999999999999998    -0.001                   -47554.45841292614+9820.672559938434i             6906.17526558513+5571.222706156887i               185.5500278309508+35.52564401562464i
0.0030000000000000027     -0.020999999999999998    -0.001                   -47458.19990572931+9340.725318943332i             5405.663471940082+6424.627569822681i              445.6095842501854+966.1547869938855i