% Model:              FEA.mph
% Version:            COMSOL 6.0.0.318
% Date:               Oct 27 2022, 08:27
% Dimension:          3
% Nodes:              900
% Expressions:        3
% Description:        Current density, x component, Current density, y component, Current density, z component
% Length unit:        m
% x                       y                        z                        mf.Jx (A/m^2) @ freq=1000, Material Switch 1=Aluminum mf.Jy (A/m^2) @ freq=1000, Material Switch 1=Aluminum mf.Jz (A/m^2) @ freq=1000, Material Switch 1=Aluminum
-0.028999999999999998     -0.028999999999999998    -0.001                   1826.3341709079093+2727.3129238716383i            -1814.874426705543-2715.7622571086727i            31.27355059052619-68.45069802673189i
-0.026999999999999996     -0.028999999999999998    -0.001                   4978.980688224272+7159.0746472705405i             -1318.0736610060333-1370.2377859037679i           -75.41384336044253+143.92626729118228i
-0.024999999999999998     -0.028999999999999998    -0.001                   6862.914692511625+10047.398396561817i             -764.7730498364268-1093.4263945301636i            33.1665513724382+105.12547629364317i
-0.023                    -0.028999999999999998    -0.001                   7933.538521581734+12208.539600115679i             -311.0667874316221-947.9729826313184i             17.88188643260888+121.0173825920362i
-0.020999999999999998     -0.028999999999999998    -0.001                   8170.338662232897+14042.312447095914i             106.64544675051711-858.7751265943801i             -7.348883883599606+136.1159566849977i
-0.018999999999999996     -0.028999999999999998    -0.001                   7958.952902056167+15371.563175196921i             365.01592948411565-784.0662758191402i             -37.98471909613714+88.21216309265607i
-0.016999999999999998     -0.028999999999999998    -0.001                   6865.969086759249+16723.76947469736i              781.0312855040479-735.4958448977548i              -9.335190932786402+182.0048999459358i
-0.014999999999999998     -0.028999999999999998    -0.001                   5476.24528122438+17597.128879575095i              775.9739207736903-394.12787513264i                -178.77567019414147+259.8882604004288i
-0.012999999999999998     -0.028999999999999998    -0.001                   3683.361092837205+18340.79344766462i              890.2921722051709-111.18853627699121i             175.65846058091+9.216216877102287i
-0.010999999999999996     -0.028999999999999998    -0.001                   1860.724769825114+18439.725915694828i             1111.9255608880067-0.994438748738383i             -129.88362977969928+79.49017887381187i
-0.008999999999999998     -0.028999999999999998    -0.001                   -329.8083783483293+18268.71955332785i             977.9291230728103+383.218987638509i               96.07872560894498-47.76533823746947i
-0.006999999999999999     -0.028999999999999998    -0.001                   -2525.055781584555+17580.9703491209i              1124.5302264978282+585.1051285961724i             -164.72944179355193-96.6712448945794i
-0.0049999999999999975    -0.028999999999999998    -0.001                   -4916.755100561997+16411.947893870405i            1185.3702881301624+623.0400512230644i             -101.58256606828103-263.65471536226096i
-0.0029999999999999957    -0.028999999999999998    -0.001                   -7607.312555784789+14842.748497969342i            1342.6670165654984+864.0140662803789i             103.6351034382043+19.512715156706467i
-9.999999999999974E-4     -0.028999999999999998    -0.001                   -9903.662426198234+13281.999978346763i            1329.7887847195043+1018.2463575837087i            -123.52305329849398-279.44945859760577i
0.0010000000000000009     -0.028999999999999998    -0.001                   -12342.826454500708+11367.339101731139i           1026.150521851697+865.2275872647755i              -103.4505534889548-202.6128981408544i
0.0030000000000000027     -0.028999999999999998    -0.001                   -14472.412183989574+9385.032297763i               888.2516446854623+946.9466710931523i              -101.51529790994226-260.50470872368857i
0.0050000000000000044     -0.028999999999999998    -0.001                   -16154.885084186104+7266.294102791013i            665.3917154743349+874.4300483175728i              -159.75859423710145-427.85977097249463i
0.007000000000000006      -0.028999999999999998    -0.001                   -17228.740639163472+5477.539888048502i            392.82361794150455+880.9494649605016i             72.46800106471287+165.79626060392914i
0.009000000000000001      -0.028999999999999998    -0.001                   -17673.684505471865+3909.939611621223i            102.65136850782316+875.4331122409824i             -60.55362539373964-334.5044334267274i
0.011000000000000003      -0.028999999999999998    -0.001                   -17640.267390785542+2098.8499676431898i           -202.1237267474784+739.3012854510306i             -57.968792558742265-427.93710502184075i
0.013000000000000005      -0.028999999999999998    -0.001                   -16876.8806116851+1277.0072336298877i             -478.95213694394863+665.2108718929275i            -26.9809051229532-154.1918491908081i
0.015                     -0.028999999999999998    -0.001                   -15749.168848688789+36.29477284532417i            -684.0650214808264+395.34853783333165i            -42.99180394710999-105.96253713442276i
0.017                     -0.028999999999999998    -0.001                   -14256.272036155433-946.1414529023162i            -804.996662421468+430.5298998649187i              -20.7373073899528+36.57692032102091i
0.019000000000000003      -0.028999999999999998    -0.001                   -12476.820891986777-1732.2679905285788i           -909.350955100531+208.49232335915573i             -36.008847467059894+166.88664882743106i
0.021000000000000005      -0.028999999999999998    -0.001                   -10558.738169325634-2419.724829769998i            -1011.4187847846146+185.4717392756399i            11.869143280722472-294.8378335871756i
0.023000000000000007      -0.028999999999999998    -0.001                   -8442.489104786238-2835.0400845147774i            -1095.0471096562328+116.34128334201014i           -48.711115547373026+110.8061918795342i
0.025                     -0.028999999999999998    -0.001                   -6179.66355556467-2896.9985365536277i             -1175.870912880236-42.42921560134793i             9.239083530892787-92.8856212807229i
0.027000000000000003      -0.028999999999999998    -0.001                   -3730.0319023591624-2510.1788924288508i           -1266.6479422697332-393.0630452460032i            17.655644612583625-111.28116200653332i
0.029000000000000005      -0.028999999999999998    -0.001                   -1238.9448766540618-1096.4264447455564i           -1244.8473034849965-1057.4768103668016i           0.4149767733801467-34.27197815762326i
-0.028999999999999998     -0.026999999999999996    -0.001                   1308.5276741293294+1755.0561660236995i            -4882.861681806752-7180.2599601759075i            -120.04129237310015-150.93702424802282i
-0.026999999999999996     -0.026999999999999996    -0.001                   3650.012309252675+4737.679175143345i              -3698.1108488078594-4634.475009267717i            53.721925034410695-60.73866536426687i
-0.024999999999999998     -0.026999999999999996    -0.001                   5239.98697270958+6992.904076611394i               -2160.878261741438-3363.2380758538793i            74.81893313396817-75.25760964665187i
-0.023                    -0.026999999999999996    -0.001                   5847.6207353598575+8877.12316019337i              -772.1577694815262-2816.171327459256i             7.519203572991474+6.630626048830481i
-0.020999999999999998     -0.026999999999999996    -0.001                   5835.8810105347575+10518.395034242527i            269.3410810143348-2400.4711771455864i             87.1351245514474-30.8353948945408i
-0.018999999999999996     -0.026999999999999996    -0.001                   4932.024462976935+12054.257783231744i             1224.8262773598196-2092.1300094509324i            101.65049318635461-75.0930545929559i
-0.016999999999999998     -0.026999999999999996    -0.001                   3567.6420673688626+13378.795852577021i            1984.2958624196147-1770.187618451708i             146.2509601857308-166.89147359403847i
-0.014999999999999998     -0.026999999999999996    -0.001                   2015.1882511681345+14425.856461577485i            2495.7959582053686-1295.6215166093461i            316.543257323893-83.04369950563252i
-0.012999999999999998     -0.026999999999999996    -0.001                   -42.80876004042174+15360.978951916026i            2821.7488889701426-900.2483560240498i             -186.89127873651998-83.439863716711i
-0.010999999999999996     -0.026999999999999996    -0.001                   -1924.260274159184+15977.412879157902i            3101.1941711192226-118.44790003019264i            406.68341604739777+302.88700934861566i
-0.008999999999999998     -0.026999999999999996    -0.001                   -3925.869654272777+16160.03595296182i             3164.500471744283+534.1249811464319i              41.648122932074216+27.6866776816628i
-0.006999999999999999     -0.026999999999999996    -0.001                   -6208.5194842835235+16055.429788757498i           3369.857483368897+1043.879669978254i              -290.8088952478178-99.4034468965278i
-0.0049999999999999975    -0.026999999999999996    -0.001                   -8279.925298720826+15593.490275805609i            3633.3108961396597+1806.2631388866605i            334.0289516470172-85.59521677548352i
-0.0029999999999999957    -0.026999999999999996    -0.001                   -10355.359010427559+14830.489959936474i           3609.182954480941+2275.778149331125i              368.211626412785-45.04401530730309i
-9.999999999999974E-4     -0.026999999999999996    -0.001                   -12604.819015243633+14019.282955368873i           3504.996696591814+2374.158861629645i              134.96896657588908+233.5354009380176i
0.0010000000000000009     -0.026999999999999996    -0.001                   -14834.99536138768+12388.543624750324i            3315.966294561831+2660.983615268863i              202.13907939637534+412.1830643189228i
0.0030000000000000027     -0.026999999999999996    -0.001                   -16583.135435471213+11341.289138067817i           2872.20860298557+2758.680638738446i               37.64103222089881+92.7618170169755i
0.0050000000000000044     -0.026999999999999996    -0.001                   -18207.44997700775+9615.778108992952i             1955.6158016368242+2332.307265538838i             114.32490051457268+680.3747543812439i
0.007000000000000006      -0.026999999999999996    -0.001                   -18968.205624778464+8337.537053876802i            1140.2061652841226+2435.1532115058008i            -87.29337032039402+135.56436488800554i
0.009000000000000001      -0.026999999999999996    -0.001                   -19163.409082525224+6989.110909124615i            145.38446992268143+2310.0771583560536i            158.571529744691+412.4579277157971i
0.011000000000000003      -0.026999999999999996    -0.001                   -18702.913346691545+5772.7613648157985i           -778.8892012245608+2095.7095336268285i            196.98202623582455+510.52288082347707i
0.013000000000000005      -0.026999999999999996    -0.001                   -17783.206119832575+4416.947381901822i            -1547.304517862677+1731.6754015100737i            -91.66742481409072-291.22470911345755i
0.015                     -0.026999999999999996    -0.001                   -16412.019795908545+3285.5672234197054i           -2096.48181783878+1597.1851504927802i             -49.88181699821145-117.11014843318577i
0.017                     -0.026999999999999996    -0.001                   -14748.907656634225+2136.9609206964865i           -2514.8566187386346+1388.9361189057183i           25.336062638452326+283.61542209429825i
0.019000000000000003      -0.026999999999999996    -0.001                   -12861.026659458952+1183.735769597105i            -2790.5355053606954+1217.2511782907914i           35.20857706565844-194.3979766806136i
0.021000000000000005      -0.026999999999999996    -0.001                   -10829.259486945346+350.4746500023106i            -3042.708880145007+985.8340126597703i             41.380722109524584+13.47801137864606i
0.023000000000000007      -0.026999999999999996    -0.001                   -8687.971802288299-458.9937057219566i             -3277.2691333063676+580.4700188462105i            -18.850186059329367+158.85435776998372i
0.025                     -0.026999999999999996    -0.001                   -6421.2398150109075-947.4156744891261i            -3541.338386973611+124.65204572629348i            -17.922493441900542+203.2880758764627i
0.027000000000000003      -0.026999999999999996    -0.001                   -3962.2575680801733-1083.635137262951i            -3808.2372760527355-889.5824900251974i            -32.00402835264838+83.08356263809493i
0.029000000000000005      -0.026999999999999996    -0.001                   -1348.5991307328616-489.5722051749982i            -3796.2072799934444-2543.9594569839837i           -2.8451043452033065+14.079009964804106i
-0.028999999999999998     -0.024999999999999998    -0.001                   777.5597831327448+1372.8222804730271i             -6938.775825388381-10289.449378997186i            -119.63927108616112-295.94598884374824i
-0.026999999999999996     -0.024999999999999998    -0.001                   1902.7808369530885+3724.6013999727493i            -5304.593336387882-6910.9911824708715i            -189.97735454962628+108.48895822217054i
-0.024999999999999998     -0.024999999999999998    -0.001                   2370.6048086994483+5822.1144021612645i            -2858.7834417986896-5371.134693896025i            7.547793893370507-102.49689360207877i
-0.023                    -0.024999999999999998    -0.001                   2315.0753946225072+7571.692478145175i             -880.6419566451542-4658.837155222187i             72.16570553901137+51.28047246009706i
-0.020999999999999998     -0.024999999999999998    -0.001                   1096.4669918086395+9000.101275404946i             1378.4864891750128-3965.0338031818137i            81.45990188002285+80.66121237300858i
-0.018999999999999996     -0.024999999999999998    -0.001                   -798.3137820216432+10427.189442571862i            2835.003846777466-3718.6126018775344i             -292.137346843978-43.45939492484512i
-0.016999999999999998     -0.024999999999999998    -0.001                   -3243.727896638969+11578.865214300089i            4089.7839413552365-2872.598113756134i             -326.51033302314505+141.04952571917465i
-0.014999999999999998     -0.024999999999999998    -0.001                   -5962.274144066489+12762.95997267502i             4566.996007669804-2472.6329006526976i             -189.7625343511261-266.6215702140307i
-0.012999999999999998     -0.024999999999999998    -0.001                   -8546.410810288095+13716.166291121604i            4914.485748448338-1690.385703501927i              45.84096681197621-334.54141053835804i
-0.010999999999999996     -0.024999999999999998    -0.001                   -10590.52842555645+14804.412210288127i            5092.7086347253535-710.1205657173413i             314.02169409943497-139.90878897652803i
-0.008999999999999998     -0.024999999999999998    -0.001                   -12731.802407538727+14949.56580412323i            5289.519986684166+384.48438875509424i             215.60279445508806-72.11096261744622i
-0.006999999999999999     -0.024999999999999998    -0.001                   -14571.61215082899+15046.380581498242i            5308.381675730217+1156.989843872615i              245.47351216733105+437.30768216239665i
-0.0049999999999999975    -0.024999999999999998    -0.001                   -16198.900175139082+15139.248905520997i           5509.577264207726+1972.5351708172927i             -171.54093677036772-575.711418250937i
-0.0029999999999999957    -0.024999999999999998    -0.001                   -17992.622559607844+14575.320273035346i           5661.432039686603+2876.840709674037i              -210.81016857919442-703.4529586327203i
-9.999999999999974E-4     -0.024999999999999998    -0.001                   -19654.468705534953+13823.11116617048i            5545.775958180308+3513.749946339542i              21.129024534342605-520.0227931387816i
0.0010000000000000009     -0.024999999999999998    -0.001                   -21271.729110118737+12842.41763427932i            5046.851234712878+3848.2137446963475i             202.43917165457378-203.80108153354624i
0.0030000000000000027     -0.024999999999999998    -0.001                   -22656.608668367386+11669.081068326836i           4073.733946126455+3887.3484530667383i             289.3588237899207+179.17696780506134i
0.0050000000000000044     -0.024999999999999998    -0.001                   -23441.74128656245+10609.1382748074i              2970.5533648969163+4111.240510701463i             389.9964994943551+333.96515910472056i
0.007000000000000006      -0.024999999999999998    -0.001                   -23823.63350594765+9362.319522123358i             1343.3184297441458+3656.0006925359344i            -143.16927184033966+19.575425500142295i
0.009000000000000001      -0.024999999999999998    -0.001                   -23384.780864262815+8058.320467778397i            -285.60645047086354+3476.3207386253885i           57.779088584056616+477.4844392134913i
0.011000000000000003      -0.024999999999999998    -0.001                   -22339.604642211525+6921.608751409289i            -1848.6911852977694+3168.142867255525i            41.40716869851124+426.7390192420482i
0.013000000000000005      -0.024999999999999998    -0.001                   -20582.177941478192+5635.856882202248i            -3045.4665721067067+3017.1952724318244i           -10.313751287060544+161.77441878635648i
0.015                     -0.024999999999999998    -0.001                   -18348.401480174507+4589.40526945905i             -4000.682319094201+2594.8744257708804i            69.9388130702442+199.46689196990502i
0.017                     -0.024999999999999998    -0.001                   -15988.06825494377+3617.66754084661i              -4525.408520349065+2555.018061615083i             71.24147433429701+193.65946106304844i
0.019000000000000003      -0.024999999999999998    -0.001                   -13613.540207985052+2480.6421741236463i           -4986.253458183552+2234.032652494802i             110.06305548711556+589.4544426731745i
0.021000000000000005      -0.024999999999999998    -0.001                   -11275.776474982944+1442.2611249945824i           -5255.629142394821+1823.4567670652484i            38.286513507205505+333.7413449459717i
0.023000000000000007      -0.024999999999999998    -0.001                   -8918.33450835621+647.332228899138i               -5539.497549434523+1299.6845598661992i            37.8967011642312+169.58580807616212i
0.025                     -0.024999999999999998    -0.001                   -6528.22934983832-56.56654435774606i              -5922.15010695129+489.03924266270036i             20.943351147200243+11.980291577204579i
0.027000000000000003      -0.024999999999999998    -0.001                   -4013.180869895423-409.63784394351353i            -6376.712649471641-836.6111456235152i             -1.0650847324739514+8.098001308282228i
0.029000000000000005      -0.024999999999999998    -0.001                   -1370.0231318268302-294.78082653215057i           -6456.191175260535-3287.6982484214473i            46.79387649255119-80.57108767959387i
-0.028999999999999998     -0.023                   -0.001                   -1.0245921316209692+1009.5050135480789i           -7594.959555446927-12752.144445327567i            -35.91947382604943-315.72520092408206i
-0.026999999999999996     -0.023                   -0.001                   -6.890143531572919+3371.6597629454955i            -5511.06788301356-9002.3302987715i                -171.0241172308965+93.89242357127755i
-0.024999999999999998     -0.023                   -0.001                   -815.268967501034+5441.990290575647i              -2323.93227684834-7136.259333662057i              215.68369185233263+39.464798636593976i
-0.023                    -0.023                   -0.001                   -2620.5046949251923+7169.125152960239i            922.4160365123929-6095.089669409296i              195.52148744396806+175.65875763258373i
-0.020999999999999998     -0.023                   -0.001                   -5473.305824332644+8415.70365558091i              3733.2023290467287-5400.739585391629i             12.770205053933985+38.927832692999644i
-0.018999999999999996     -0.023                   -0.001                   -9309.758289046631+9537.167746482448i             6036.158383355345-4642.512857584221i              135.44470315094796-56.333577075271634i
-0.016999999999999998     -0.023                   -0.001                   -13743.840441912986+10332.195664792946i           7521.026487753376-3920.560196305468i              74.5240164053491-30.340799535035888i
-0.014999999999999998     -0.023                   -0.001                   -17977.196817845568+10758.149072151717i           8079.800091836813-3152.242534390545i              -116.57313797428148-248.5017898174702i
-0.012999999999999998     -0.023                   -0.001                   -21728.5213382039+11141.286883977169i             7951.060893989743-2433.6617920903927i             -235.4770290482461-428.3603584660521i
-0.010999999999999996     -0.023                   -0.001                   -24935.948957068817+11655.39667212698i            7303.886396082068-1600.2023603698422i             -302.34125950305696-653.0316140110892i
-0.008999999999999998     -0.023                   -0.001                   -26917.275379732677+12449.333675682827i           6838.121419229348-569.3495180845084i              -227.1300172628299-671.8872174355871i
-0.006999999999999999     -0.023                   -0.001                   -28130.691832676355+13314.410849956934i           6607.862789968911+887.6453628938738i              197.54304540247327+372.4272094595i
-0.0049999999999999975    -0.023                   -0.001                   -28980.16622895951+13964.154486172149i            6732.700651915194+2302.438013111595i              179.56165016864028+250.80718556513483i
-0.0029999999999999957    -0.023                   -0.001                   -29804.584074072263+13864.974753398943i           6911.084395243275+3412.428591495169i              186.875524588851-122.90433107606962i
-9.999999999999974E-4     -0.023                   -0.001                   -30780.836649745303+13204.020023876981i           6882.581024261297+4233.2251294049465i             100.32536249845764+344.2643386365114i
0.0010000000000000009     -0.023                   -0.001                   -31799.215396105184+12346.522173249268i           6365.101321089553+4775.866238981214i              -40.313468858758114+521.6754468508788i
0.0030000000000000027     -0.023                   -0.001                   -32722.391525862062+11492.088798002098i           5060.506089643344+4909.9643491176785i             55.31155364781028+1084.319395686234i
0.0050000000000000044     -0.023                   -0.001                   -32970.83626680705+10244.349357596764i            3265.4051526549288+5160.210647253893i             -111.79742656427399+621.6709078476692i
0.007000000000000006      -0.023                   -0.001                   -32358.739642431086+9312.202510720072i            802.5700279076468+4765.110220608801i              198.65988771872583+891.3427902486816i
0.009000000000000001      -0.023                   -0.001                   -30823.329809481784+8360.061551630894i            -1640.251630384811+4679.613120295446i             327.21526281702825+983.6449893844976i
0.011000000000000003      -0.023                   -0.001                   -28356.62675332268+7131.332550838362i             -3938.0737879243084+4372.505833830611i            -188.62212974418316-566.5097868963448i
0.013000000000000005      -0.023                   -0.001                   -25051.717945133274+6563.570009302011i            -5823.783467197738+3769.6487316893667i            -155.9934301469146-541.0371723218008i
0.015                     -0.023                   -0.001                   -21929.031408312963+5316.729053026125i            -6797.242325742602+3957.601033907858i             103.01132164942393+111.59815995488853i
0.017                     -0.023                   -0.001                   -18567.02388147351+4120.914643757532i             -7415.2882343720175+3542.7045723705537i           82.7067267332275-66.31710052320395i
0.019000000000000003      -0.023                   -0.001                   -15295.63796624983+3117.065834745867i             -7724.667262714473+3180.6412382346757i            -48.71416814143416-31.493253043998788i
0.021000000000000005      -0.023                   -0.001                   -12274.588462695254+2102.964932836883i            -7827.028722342531+2865.120807110854i             65.52343853638905+100.31057797827832i
0.023000000000000007      -0.023                   -0.001                   -9494.553999507552+1112.3029014378087i            -8079.614308448448+2120.252222636409i             6.686835408728709+166.04158212171103i
0.025                     -0.023                   -0.001                   -6791.206812060153+491.63884902381847i            -8440.7127972994+1287.1720053028469i              3.504962916655857+69.95624091177082i
0.027000000000000003      -0.023                   -0.001                   -4203.313512944813+64.9366262901826i              -9042.300763196803-409.8782052169201i             1.946464205125286-64.60601111542933i
0.029000000000000005      -0.023                   -0.001                   -1420.5958202742163-281.02340127962646i           -9213.359359841936-3643.205063345725i             -3.0214574825001157-31.506439628949483i
-0.028999999999999998     -0.020999999999999998    -0.001                   -619.8894379306037+812.255968624102i              -6949.9130653106995-15027.390942470645i           -229.74675976545194-167.28035115696144i
-0.026999999999999996     -0.020999999999999998    -0.001                   -2256.151255204543+3079.5976026411245i            -4257.571985525387-10991.494276648742i            64.97585658130893-121.32536049737989i
-0.024999999999999998     -0.020999999999999998    -0.001                   -4583.027483560771+5174.173993925006i             -170.0569557141672-8860.584012268464i             232.01030408617416+205.86532606808527i
-0.023                    -0.020999999999999998    -0.001                   -8571.41674440595+6478.2760559402195i             4290.630435883882-7454.729191862016i              -41.017189582687394+56.63840414039956i
-0.020999999999999998     -0.020999999999999998    -0.001                   -13950.829692317815+7177.745584784334i            8470.933879326883-6266.148615397275i              77.08015885776967+327.7847994558334i
-0.018999999999999996     -0.020999999999999998    -0.001                   -20465.749905982033+7227.652858195694i            11864.358589459947-4795.410784544326i             82.04068939463485+1032.1287452179677i
-0.016999999999999998     -0.020999999999999998    -0.001                   -28108.747385135146+6477.671927850327i            13241.221780010956-4459.956467752158i             -228.18901586380386-771.0968959259924i
-0.014999999999999998     -0.020999999999999998    -0.001                   -35587.35244161464+5803.117150242862i             13278.396127033873-3219.7066284008324i            -102.37243270932059-603.9951306134151i
-0.012999999999999998     -0.020999999999999998    -0.001                   -41687.01314980098+5438.464897138787i             12192.25934021254-1966.9502593176628i             140.5121105931996+1027.1971416117576i
-0.010999999999999996     -0.020999999999999998    -0.001                   -45461.61306644178+5796.323723206173i             10157.571401009656-1832.8124364085772i            98.07086529521972+638.7546743511656i
-0.008999999999999998     -0.020999999999999998    -0.001                   -47455.38469265481+7010.033446126359i             8157.517896439361-1548.0359182565437i             -102.00391894784167-32.072318740231516i
-0.006999999999999999     -0.020999999999999998    -0.001                   -47990.89660932117+7815.910610860362i             7195.779831054777-286.3210570953058i              -64.8644746481726+553.9025735159692i
-0.0049999999999999975    -0.020999999999999998    -0.001                   -47787.70295479003+8994.746991940852i             7040.895475260622+1330.7135245273394i             -33.17079391150092+655.0788569478963i
-0.0029999999999999957    -0.020999999999999998    -0.001                   -47472.46498285486+9775.737913566656i             7261.945670890427+3227.538120745522i              67.41949002562163+666.0231187474419i
-9.999999999999974E-4     -0.020999999999999998    -0.001                   -47397.026939516305+10459.073996550913i           7409.844411615759+4765.026532172526i              122.87783817592897+591.6438056562255i
0.0010000000000000009     -0.020999999999999998    -0.001                   -47552.87896005011+9820.35354112097i              6905.904954135236+5570.966712540725i              185.56236628262917+35.43499278653996i
0.0030000000000000027     -0.020999999999999998    -0.001                   -47456.63118624423+9340.43344411416i              5405.456039208907+6424.292909912086i              445.62835225306605+965.9938128523353i