% Model:              FEA.mph
% Version:            COMSOL 6.0.0.318
% Date:               Oct 5 2022, 00:13
% Dimension:          3
% Nodes:              900
% Expressions:        3
% Description:        Current density, x component, Current density, y component, Current density, z component
% Length unit:        m
% x                       y                        z                        mf.Jx (A/m^2) @ freq=1000, Material Switch 1=Aluminum mf.Jy (A/m^2) @ freq=1000, Material Switch 1=Aluminum mf.Jz (A/m^2) @ freq=1000, Material Switch 1=Aluminum
-0.028999999999999998     -0.028999999999999998    -0.001                   3366.645224790486+4862.996111492392i              -3366.8295174633813-4841.8955044604545i           -42.29291462794119-38.64835911514354i
-0.026999999999999996     -0.028999999999999998    -0.001                   9922.26232201753+12412.807313845435i              -3150.9758898516343-3088.9048656731047i           72.36474608439408+101.55366741896479i
-0.024999999999999998     -0.028999999999999998    -0.001                   15522.281244269454+17226.61694012585i             -2657.9609421739874-1998.3526633760212i           -53.7875299432138+233.96899423795296i
-0.023                    -0.028999999999999998    -0.001                   19766.239090208182+21055.73578584562i             -1901.1666276534468-1659.2973701664523i           -11.820238659904982+192.46720475096845i
-0.020999999999999998     -0.028999999999999998    -0.001                   22944.30781775654+24090.21316179121i              -1223.8688904115804-1450.2605402744002i           -32.355020402078424+220.14033905570864i
-0.018999999999999996     -0.028999999999999998    -0.001                   25237.897806316712+26208.367483995182i            -927.6779215832069-850.5294057273076i             -153.42660785195758+224.49861556110898i
-0.016999999999999998     -0.028999999999999998    -0.001                   26649.3240224433+27700.06226595956i               17.888973909455828-806.8045255262706i             -31.748164517060275+79.66156960392594i
-0.014999999999999998     -0.028999999999999998    -0.001                   26243.654603434097+29160.490410667648i            234.05684889755614-185.59386810197012i            98.74412236818726-66.53946523065032i
-0.012999999999999998     -0.028999999999999998    -0.001                   25419.933030284352+29549.507308109747i            441.59226173097215+331.48253587976757i            -248.95310805755113+112.92753530327765i
-0.010999999999999996     -0.028999999999999998    -0.001                   23373.042448800003+29329.473348149873i            1000.9098271811768+311.82944253401655i            -612.9057117610907+524.2314681156405i
-0.008999999999999998     -0.028999999999999998    -0.001                   20891.786197989648+27967.201197222963i            1509.9264680108495+685.6642178749823i             -301.4747662558642+193.61051237664023i
-0.006999999999999999     -0.028999999999999998    -0.001                   17554.458023263633+25910.61279810635i             1893.893098268751+1143.8892726088748i             200.9783628025793-209.7238467799668i
-0.0049999999999999975    -0.028999999999999998    -0.001                   13673.924527601259+23184.125700698103i            1993.925913259979+1899.1419031145306i             91.26576389051007-240.8864842254093i
-0.0029999999999999957    -0.028999999999999998    -0.001                   9439.404882385119+19689.04027177734i              2640.0886059234604+2004.372727386173i             -44.05494799126249-179.72720029312333i
-9.999999999999974E-4     -0.028999999999999998    -0.001                   4774.493185223833+16058.905400123791i             2381.6911800840276+2023.3636502124075i            -200.3906371412144-286.41748140899375i
0.0010000000000000009     -0.028999999999999998    -0.001                   7.600097649468122+12140.798607034281i             2272.793001518663+2397.123967011988i              125.90119088500072-358.23657610092187i
0.0030000000000000027     -0.028999999999999998    -0.001                   -4441.153073152358+8250.451546781665i             2043.0864757698064+2230.43631866109i              157.487737625027-339.4233165844906i
0.0050000000000000044     -0.028999999999999998    -0.001                   -8317.70572806438+4591.943755131212i              1727.3698601682863+1626.0049641140197i            -132.1002370375386-302.1342981997592i
0.007000000000000006      -0.028999999999999998    -0.001                   -11385.2162089286+1454.6415692095918i             1366.1055185408009+1705.3376472034352i            -13.720948893738017-200.05315107522773i
0.009000000000000001      -0.028999999999999998    -0.001                   -13703.700910678337-1448.375459849835i            971.3493667658064+1354.0257914874617i             7.59919408235232-405.3807698525122i
0.011000000000000003      -0.028999999999999998    -0.001                   -15194.930976853773-3604.674592308347i            490.26329741469095+1087.1988886099834i            -35.47570425416663-164.76439474415417i
0.013000000000000005      -0.028999999999999998    -0.001                   -15742.647956621127-5207.949218923965i            95.48044232251901+799.948910552294i               78.98091322375078-391.0658085043843i
0.015                     -0.028999999999999998    -0.001                   -15517.954246382082-6432.4232148488845i           -249.5917862511048+651.5234869002281i             -67.23275585220863+216.94925667451898i
0.017                     -0.028999999999999998    -0.001                   -14758.009421588426-7132.939245667658i            -527.4504066323583+386.81098806388195i            -42.41442629421752+97.29271715704817i
0.019000000000000003      -0.028999999999999998    -0.001                   -13430.766294212794-7481.921295420415i            -800.8221828041944+194.2561538415748i             1.9644136326617376-53.186001546687756i
0.021000000000000005      -0.028999999999999998    -0.001                   -11548.205878542602-7507.8779967150695i           -1058.5452188033832-61.33948901157507i            100.02746328825852-230.35671784769804i
0.023000000000000007      -0.028999999999999998    -0.001                   -9415.663110028896-6979.413113515085i             -1177.4318977634487-322.2499440230697i            -126.68414007569822+189.2235309903252i
0.025                     -0.028999999999999998    -0.001                   -6931.760835411852-6080.24343888867i              -1297.4949137534802-643.4525110827566i            31.872999895919925-57.82953323076897i
0.027000000000000003      -0.028999999999999998    -0.001                   -4159.0228426639005-4520.348200423303i            -1445.9720281835416-986.6021338123137i            49.08806085665289-56.06659415429856i
0.029000000000000005      -0.028999999999999998    -0.001                   -1341.0877740079536-1817.5733182819954i           -1320.754842638276-1815.7231144677637i            -24.872253043983154+12.863974852197309i
-0.028999999999999998     -0.026999999999999996    -0.001                   3275.0200287834487+3109.9953377654133i            -9985.358801747967-12419.155269296549i            -177.19725956839906-149.05175126086047i
-0.026999999999999996     -0.026999999999999996    -0.001                   9362.381641714384+8166.238702644205i              -9237.384933161518-7936.723953683113i             131.56690113453885-179.29793599849927i
-0.024999999999999998     -0.026999999999999996    -0.001                   14551.555974175813+11687.838519858245i            -7301.587875459512-5682.769717563621i             45.31961427419247-83.15552155654547i
-0.023                    -0.026999999999999996    -0.001                   18484.193858901388+14346.45010660095i             -5480.6968107906505-4423.716942942767i            -11.475309452049135+16.18854440631228i
-0.020999999999999998     -0.026999999999999996    -0.001                   21444.05232079164+16286.935700485332i             -3835.1481468841143-3457.2340775631137i           119.9371745933278-122.14543920193671i
-0.018999999999999996     -0.026999999999999996    -0.001                   22978.821834305127+18144.147677593486i            -2146.720748584716-2788.2932942973653i            159.48891546740344-196.5795985216213i
-0.016999999999999998     -0.026999999999999996    -0.001                   23479.19830385715+19608.013300374485i             -462.13189191961504-2241.839166694448i            313.0761951428496-420.6459575784993i
-0.014999999999999998     -0.026999999999999996    -0.001                   23089.1815921062+20518.72818663321i               869.6525184321243-1144.054810936784i              14.344926257676702+32.195345624730585i
-0.012999999999999998     -0.026999999999999996    -0.001                   21972.65623233235+21080.853382002588i             2114.0541380453897-328.1455010627021i             -358.7386743564443+320.3011564605703i
-0.010999999999999996     -0.026999999999999996    -0.001                   19800.173560238884+21000.563895490162i            3351.4352983753893+1005.5816091804461i            514.2053561240585-247.64299878594773i
-0.008999999999999998     -0.026999999999999996    -0.001                   17160.87306726109+20558.531246924806i             4387.481637634707+1998.1127503103132i             -165.57897523784897-91.7847687230321i
-0.006999999999999999     -0.026999999999999996    -0.001                   13785.888621944103+19535.343383889754i            5408.163525062368+3219.5873317828577i             379.51379454966286-417.2957227376293i
-0.0049999999999999975    -0.026999999999999996    -0.001                   10284.611564387182+17797.472134245072i            6096.537019183211+4127.515831226942i              128.22574396090081-107.03522458303107i
-0.0029999999999999957    -0.026999999999999996    -0.001                   5851.883233548292+15539.434199831787i             6877.148693644869+4937.813579881795i              535.1084525202136-487.4635242764918i
-9.999999999999974E-4     -0.026999999999999996    -0.001                   1471.7683690780061+13118.607227118966i            6972.964229147735+5154.725501951897i              168.73041089694362+98.232461954964i
0.0010000000000000009     -0.026999999999999996    -0.001                   -3103.6942924145924+10198.713514416462i           6809.924604954622+5328.8356562461395i             125.08988668016646+236.57234067749803i
0.0030000000000000027     -0.026999999999999996    -0.001                   -7322.842390175676+7468.625857833513i             6210.675386341533+5086.626988491674i              -24.93726370680011+377.9056242727163i
0.0050000000000000044     -0.026999999999999996    -0.001                   -11103.558137683629+5132.758478936638i            5258.701352518281+4604.751780396684i              -64.70205339141633+541.0732294401786i
0.007000000000000006      -0.026999999999999996    -0.001                   -13922.76278595666+2771.8726805125793i            4030.2547196502487+4121.534867758379i             137.8098011193715-242.4674291423557i
0.009000000000000001      -0.026999999999999996    -0.001                   -15933.699166800932+714.2465904876559i            2714.777148686473+3501.2702503673854i             147.39370268176975+160.73555062563037i
0.011000000000000003      -0.026999999999999996    -0.001                   -17158.641606557187-766.0968448479568i            1346.60237441493+2658.2875327541774i              29.319541377258886+11.14123351984385i
0.013000000000000005      -0.026999999999999996    -0.001                   -17383.13914512136-1966.1006915230214i            169.01193360063002+1931.993344593943i             58.15385333453502+242.91746079716455i
0.015                     -0.026999999999999996    -0.001                   -16943.66398526955-2961.720197475424i             -876.5885666458078+1437.4859400250605i            39.994521240266295+74.94252814343349i
0.017                     -0.026999999999999996    -0.001                   -15909.151305469753-3618.7533128279215i           -1741.2103585211153+781.0673973388007i            -98.46719171553949+343.62166260914506i
0.019000000000000003      -0.026999999999999996    -0.001                   -14369.923088946096-4133.922894178967i            -2446.6355686859565+256.48374989611585i           -101.3643747187889+188.21785580885236i
0.021000000000000005      -0.026999999999999996    -0.001                   -12374.01165794874-4298.480402234194i             -3030.8017165607225-223.55084487969452i           -86.92477514139543+190.7681802966529i
0.023000000000000007      -0.026999999999999996    -0.001                   -10093.935453523314-4177.295721972729i            -3568.420924263059-682.0086505887069i             -31.753722880951564+175.8524064890658i
0.025                     -0.026999999999999996    -0.001                   -7471.443525490205-3822.2377531420866i            -4065.075725239075-1413.6200552357757i            -96.21644069970885+234.6468753956383i
0.027000000000000003      -0.026999999999999996    -0.001                   -4582.984706055924-2880.593275380757i             -4419.902485941981-2561.4627097795533i            -179.37169625576706+284.4908743194389i
0.029000000000000005      -0.026999999999999996    -0.001                   -1406.096343788763-1320.3530252224716i            -4197.066892842162-4662.610532625533i             18.896801431440043-52.029035658659204i
-0.028999999999999998     -0.024999999999999998    -0.001                   2828.915112122634+2344.320855423415i              -15896.937073319736-17741.72185229323i            -165.5488028810917-377.6870911520829i
-0.026999999999999996     -0.024999999999999998    -0.001                   7718.442614861013+6297.794340001978i              -14707.299182129807-11373.107300856807i           -331.6858405602832+430.6197119522482i
-0.024999999999999998     -0.024999999999999998    -0.001                   11794.216845351302+9293.247197624813i             -11549.136688453003-8385.359446948201i            49.90841986544697-222.8779914308566i
-0.023                    -0.024999999999999998    -0.001                   15058.754857515505+11069.981630104983i            -8737.89310329404-6344.96875332484i               -13.641474003199788+140.30979558136204i
-0.020999999999999998     -0.024999999999999998    -0.001                   16536.91159312401+12999.907601739518i             -5546.169675730635-5361.7576649187495i            170.6102208130865-221.1799492587041i
-0.018999999999999996     -0.024999999999999998    -0.001                   17092.54988822951+14441.209065856725i             -2614.2502003376776-4660.092814787771i            -385.8927922093456+489.2897060358307i
-0.016999999999999998     -0.024999999999999998    -0.001                   16354.003963172794+15665.56894976739i             9.405786314982908-3229.823539761687i              -392.4928465880899+885.7809482330429i
-0.014999999999999998     -0.024999999999999998    -0.001                   14828.42672483674+16540.957310463913i             2285.9903577448194-2020.6053678815513i            -88.7900489013695+285.17348791935626i
-0.012999999999999998     -0.024999999999999998    -0.001                   12662.12689586432+17177.501619537445i             4169.025571170287-359.8544769123069i              174.7111888383858-205.50976629496006i
-0.010999999999999996     -0.024999999999999998    -0.001                   10307.018027617929+17746.22500595522i             5759.293163878292+1182.3367079049974i             331.3996473816113-705.4752061195462i
-0.008999999999999998     -0.024999999999999998    -0.001                   7704.711616232382+17367.408101033572i             7350.401349989845+2760.254144022717i              315.0753071840834-361.2228939173375i
-0.006999999999999999     -0.024999999999999998    -0.001                   4605.580857781364+16249.960184366286i             8785.828240846253+4399.111948379976i              179.82431466132283+87.48158871869478i
-0.0049999999999999975    -0.024999999999999998    -0.001                   1313.99530870529+14977.591600502135i              10084.287388573848+5787.935891016296i             86.50906240290574-0.9717277796417739i
-0.0029999999999999957    -0.024999999999999998    -0.001                   -2484.1796477308176+13642.390382495721i           10879.727545039292+6960.037079885405i             -5.748788048778835-671.5654031587754i
-9.999999999999974E-4     -0.024999999999999998    -0.001                   -6254.062467241058+11289.9390477534i              11243.337425500955+7674.080328827524i             221.13051532263006-695.8053941153281i
0.0010000000000000009     -0.024999999999999998    -0.001                   -10129.598000675802+9026.68890797227i             10875.16394654428+7832.153337298478i              319.9569516091122-603.0712535668699i
0.0030000000000000027     -0.024999999999999998    -0.001                   -13759.217766485313+6759.917854114654i            9800.489202996498+7522.340231511094i              283.95554810604693-274.1376947610356i
0.0050000000000000044     -0.024999999999999998    -0.001                   -16728.723867478802+4647.237490948495i            8324.05717387148+6941.567382099917i               415.5540286393931-87.92477790092849i
0.007000000000000006      -0.024999999999999998    -0.001                   -18977.45289425969+2823.0351044222293i            6250.545451735455+6014.536957059523i              240.92484792158305-206.96870964111196i
0.009000000000000001      -0.024999999999999998    -0.001                   -20292.42477507828+1242.0599881837209i            4012.320820153106+5066.346601558695i              192.13540371744764-470.4856668346573i
0.011000000000000003      -0.024999999999999998    -0.001                   -20796.59026304424-6.850525945013634i             1687.6806024751554+3914.007325292982i             -135.01029775719465+539.096415276582i
0.013000000000000005      -0.024999999999999998    -0.001                   -20192.886922586167-981.8287979883443i            -314.90773327740965+2956.21474717347i             -106.848264895723+506.7600638848138i
0.015                     -0.024999999999999998    -0.001                   -18910.558265685915-1747.8268561464245i           -1971.6103917472985+2132.4498537692707i           53.179574033402524+128.94221743304254i
0.017                     -0.024999999999999998    -0.001                   -17174.806600385604-2453.8288495160414i           -3345.6378379070366+1319.87057795289i             -56.665982902893184+483.28999960123275i
0.019000000000000003      -0.024999999999999998    -0.001                   -15124.798088819978-2764.7920498299904i           -4434.759021651899+627.5176801252587i             -72.0582113022979+554.5943021972262i
0.021000000000000005      -0.024999999999999998    -0.001                   -12836.981705967602-3067.9418874549815i           -5320.731919914672-80.54247145895133i             -95.26965850214258+395.2193174908634i
0.023000000000000007      -0.024999999999999998    -0.001                   -10335.908437999522-3034.7524161646193i           -6094.80597125-890.463293101891i                  -34.62395573403713+190.44355074148302i
0.025                     -0.024999999999999998    -0.001                   -7609.258232351622-2820.5978158414878i            -6816.596401509234-1997.1664048871141i            33.23253509364653+0.25102295750782544i
0.027000000000000003      -0.024999999999999998    -0.001                   -4622.602109226604-2154.8346159161433i            -7453.001358697134-3590.894704408708i             -5.906132287795719+12.856878872316331i
0.029000000000000005      -0.024999999999999998    -0.001                   -1532.6179644365968-908.4215435521994i            -7255.063982002513-6607.610906161406i             111.53841486564241-181.90948913906794i
-0.028999999999999998     -0.023                   -0.001                   1919.0197117193052+1953.299141692937i             -20478.150681579766-22128.81905321781i            -22.310772200802482-355.86818239918193i
-0.026999999999999996     -0.023                   -0.001                   5874.795863819257+5503.5535791839675i             -18600.599196256793-14459.65834329926i            -306.06022424127343+387.9552733035443i
-0.024999999999999998     -0.023                   -0.001                   8626.531993782472+8225.147920192492i              -14432.553611870077-10536.578056945289i           342.0709896929619-390.22217043531504i
-0.023                    -0.023                   -0.001                   10013.850519297446+10187.01174544345i             -9838.436976598976-8429.99254015164i              329.45892117871745-356.080554127231i
-0.020999999999999998     -0.023                   -0.001                   10004.875115187842+11510.50634311629i             -5533.939681501156-6742.092949850711i             75.41420696509759+24.27391397010968i
-0.018999999999999996     -0.023                   -0.001                   8266.948282156876+12318.055254336463i             -1384.7253003909193-5383.482165881343i            -165.5544332120623-61.04014582442955i
-0.016999999999999998     -0.023                   -0.001                   5579.833250698531+13564.434976216144i             2070.855672007039-4188.835148618694i              210.58083492364432-247.89994203667442i
-0.014999999999999998     -0.023                   -0.001                   2333.917540242815+13788.066604220783i             4770.479573239931-2625.20164620928i               -66.9422870404378-104.59762392071656i
-0.012999999999999998     -0.023                   -0.001                   -1065.133044739482+13885.785589318835i            6897.829090239391-975.0522335448434i              -196.40621396364108+32.92731688702593i
-0.010999999999999996     -0.023                   -0.001                   -4531.710068508705+13344.643542401835i            8649.728229533921+1246.761773699414i              84.75936263472857+502.8433472068896i
-0.008999999999999998     -0.023                   -0.001                   -7351.7334597796225+13562.803751803765i           10083.101725639186+3141.765314751667i             161.83584290895965+391.0545781717617i
-0.006999999999999999     -0.023                   -0.001                   -9831.744987557155+13631.532955620016i            11578.18300712018+5242.366956834016i              208.45106895884553+71.58232822223874i
-0.0049999999999999975    -0.023                   -0.001                   -12271.876386451226+12996.968733916598i           13053.212188665802+7251.797425611062i             274.26758583015646-200.23590293928817i
-0.0029999999999999957    -0.023                   -0.001                   -14903.853254780808+11744.686875822115i           14128.455666785605+8793.672013481804i             368.8302041218141-715.0402299667413i
-9.999999999999974E-4     -0.023                   -0.001                   -17983.280094855923+9500.599742119273i            14814.796115388375+9925.672238710737i             439.68447754574595-578.9001623022102i
0.0010000000000000009     -0.023                   -0.001                   -21035.429504682623+7625.19363281599i             14404.690562913402+10172.816252297891i            326.8658055643446-809.3662438576515i
0.0030000000000000027     -0.023                   -0.001                   -23971.568077091662+5455.4826684887585i           12930.802152504973+9847.415675863353i             283.12635369453346-1113.6608106151684i
0.0050000000000000044     -0.023                   -0.001                   -26209.29337690139+3673.6691536451513i            10526.485556028083+8628.450950957413i             -265.21905101400904+1265.1967705734514i
0.007000000000000006      -0.023                   -0.001                   -27327.94716407752+1862.8844776276433i            7471.325947868704+7552.076960373697i              -5.032918553657531+777.6247477920074i
0.009000000000000001      -0.023                   -0.001                   -27400.32235349621+561.4055985901025i             4206.452545359474+6347.8336023545835i             143.78160907432007+729.4313553360298i
0.011000000000000003      -0.023                   -0.001                   -26413.157537265557-622.7879110740336i            931.7080107269503+4964.523440886083i              -127.61041525575524-312.2758188300012i
0.013000000000000005      -0.023                   -0.001                   -24464.8881560376-1190.2619031640947i             -1938.9260456230998+3577.5301258496766i           -58.79942671494874-27.714415608403623i
0.015                     -0.023                   -0.001                   -22168.901527068196-1840.5912480575096i           -4063.898603764152+2732.436595739425i             -5.227710611762046+280.3844431124296i
0.017                     -0.023                   -0.001                   -19522.85629222326-2170.1676533080413i            -5650.18115408404+1760.5460106112657i             113.41669917452387-40.326890648045456i
0.019000000000000003      -0.023                   -0.001                   -16655.30427613328-2420.7458147050356i            -6915.094356700644+972.951251541331i              110.06318856850129-91.83075168779595i
0.021000000000000005      -0.023                   -0.001                   -13732.86523382654-2605.83828030514i              -7926.654828821556+66.30556294394604i             53.629126421726504+49.36455601020615i
0.023000000000000007      -0.023                   -0.001                   -10794.530527412247-2681.9683636986524i           -8880.782600772247-946.6477348417741i             -47.838932375950016+190.81715496239323i
0.025                     -0.023                   -0.001                   -7846.853022237926-2345.3822117326995i            -9826.915822134044-2122.8454795590565i            -19.802295079906333+94.34113670802147i
0.027000000000000003      -0.023                   -0.001                   -4771.275074250211-1885.3885404251469i            -10614.772256400267-4350.80502485726i             -64.42736624190944+126.8503775053541i
0.029000000000000005      -0.023                   -0.001                   -1561.6119314526086-895.4644068949389i            -10346.951689412164-8225.353829144442i            36.15820666585309-150.06829433569496i
-0.028999999999999998     -0.020999999999999998    -0.001                   1440.866140939003+1609.9988669494694i             -23728.95522921694-26216.715286812352i            -354.1475901716921-15.433991041554425i
-0.026999999999999996     -0.020999999999999998    -0.001                   3645.1866903313803+5115.456682322553i             -21105.605174132317-17268.988130971018i           243.26292217363664-358.3139769679792i
-0.024999999999999998     -0.020999999999999998    -0.001                   4902.182416737922+7529.299544286101i              -15623.382762760475-12653.9713217635i             407.33231560989026-338.51548517876216i
-0.023                    -0.020999999999999998    -0.001                   3989.7037440395784+9146.005224798833i             -9398.830977654408-9948.23014273423i              -50.929115910898695+80.73069044213273i
-0.020999999999999998     -0.020999999999999998    -0.001                   1295.7800205102055+10008.620144020542i            -3243.422219768208-7859.821361363416i             166.39290573706887-232.56776141271564i
-0.018999999999999996     -0.020999999999999998    -0.001                   -3063.469066085883+9993.609116974749i             2461.2520802663134-5742.287838760962i             166.35302740845117+362.7357306448721i
-0.016999999999999998     -0.020999999999999998    -0.001                   -9156.810496085513+9376.108369547059i             6420.800716256549-4597.684482533966i              -293.5373674711768-117.3791027263265i
-0.014999999999999998     -0.020999999999999998    -0.001                   -15784.59484265597+8461.776769620252i             9350.385235305419-2592.2559386270514i             -140.02622383019335-392.3522350050129i
-0.012999999999999998     -0.020999999999999998    -0.001                   -21798.954420525773+7751.19504336511i             11198.926758833575-241.1066011544414i             141.4011381868642+236.69006423566452i
-0.010999999999999996     -0.020999999999999998    -0.001                   -26511.99865832834+7065.7052156433565i            11585.510493614473+319.10245275496237i            -294.03807590681134-1225.2617853073407i
-0.008999999999999998     -0.020999999999999998    -0.001                   -29322.082277455498+7165.264477047358i            12848.498184522887+3602.4916181758385i            281.0830069002299-282.4972791054021i
-0.006999999999999999     -0.020999999999999998    -0.001                   -31037.255491480413+7503.890980196473i            13639.484085621794+5200.689502253235i             -124.55465089333833+460.7588990683078i
-0.0049999999999999975    -0.020999999999999998    -0.001                   -32335.895692788807+7453.053644954314i            15048.827153280852+7639.865364551588i             -225.34416221909888+772.7017094235024i
-0.0029999999999999957    -0.020999999999999998    -0.001                   -33648.79382763883+7537.34168034606i              16554.27202984302+10230.544454273258i             -281.2769611640036+1673.0761250526193i
-9.999999999999974E-4     -0.020999999999999998    -0.001                   -35235.80269062607+5928.877338858215i             17146.432342273736+11489.929741643535i            266.8083334345568-726.6137731247145i
0.0010000000000000009     -0.020999999999999998    -0.001                   -37078.819010329804+3970.2971050686647i           16743.327791106+12163.45165949041i                78.81868983869614+768.5946667212808i
0.0030000000000000027     -0.020999999999999998    -0.001                   -38633.38978617729+2258.213980274492i             14857.00278720843+11322.317977124358i             -224.8672651704697-513.1771046005546i