% Model:              FEA.mph
% Version:            COMSOL 5.1.0.145
% Date:               Jun 19 2022, 10:47
% Dimension:          2
% Nodes:              500
% Expressions:        2
% Description:        Magnetic flux density, r component, Magnetic flux density, z component
% Length unit:        m
% r                       z                        mf.Br (T) @ freq=500                              mf.Bz (T) @ freq=500
0.006                     0.0025                   -0.002728511351981539-3.1951152729062734E-5i      2.2477098640624272E-4-4.513088662510958E-5i
0.00604809619238477       0.0025                   -0.0026439307343953285-3.201438547439014E-5i      1.4860510281154054E-4-4.475966711006216E-5i
0.006096192384769539      0.0025                   -0.0025593501168091077-3.207761821971756E-5i      7.258236869060351E-5-4.4388094277592415E-5i
0.006144288577154309      0.0025                   -0.0024747694992228973-3.2140850965044985E-5i     -3.3005775880601967E-6-4.401617642478253E-5i
0.006192384769539079      0.0025                   -0.002368465855969417-3.2199770342036425E-5i      -1.1673955908973895E-4-4.365052859429857E-5i
0.0062404809619238475     0.0025                   -0.002270100015853621-3.223774038352956E-5i       -1.1763780556788223E-4-4.332034015635611E-5i
0.006288577154308617      0.0025                   -0.0021717341757378147-3.2275710425022695E-5i     -1.1783427055807555E-4-4.299014943448396E-5i
0.006336673346693387      0.0025                   -0.002073368335622019-3.2313680466515885E-5i      -1.1734493390443178E-4-4.265995648068755E-5i
0.0063847695390781565     0.0025                   -0.001975002495506216-3.2351650508009075E-5i      -1.1618529394918659E-4-4.2329761345406466E-5i
0.006432865731462926      0.0025                   -0.0018766366553904165-3.238962054950221E-5i      -1.1437038553276536E-4-4.199956407757068E-5i
0.006480961923847696      0.0025                   -0.0017782708152746206-3.242759059099529E-5i      -1.1191479719232004E-4-4.166936472465851E-5i
0.006529058116232465      0.0025                   -0.0016799049751588177-3.246556063248848E-5i      -1.0883268760019955E-4-4.133916333274901E-5i
0.006577154308617234      0.0025                   -0.001720554489934514-3.246678093214603E-5i       -2.3047930985134295E-4-4.0968016808190166E-5i
0.006625250501002004      0.0025                   -0.0016624159040210286-3.2484613050646566E-5i     -2.6504090926486004E-4-4.060584504032654E-5i
0.0066733466933867735     0.0025                   -0.00160427731810757-3.2502445169146576E-5i       -2.992735941031231E-4-4.024344983535008E-5i
0.006721442885771543      0.0025                   -0.0015461387321941051-3.252027728764683E-5i      -3.3318442514411613E-4-3.9880835989764235E-5i
0.006769539078156313      0.0025                   -0.0014880001462806362-3.253810940614719E-5i      -3.667802625043214E-4-3.951800816375968E-5i
0.006817635270541082      0.0025                   -0.0014298615603671704-3.2555941524647285E-5i     -4.000677727166171E-4-3.915497088602295E-5i
0.006865731462925852      0.0025                   -0.0013912016750739654-3.254473566209997E-5i      -3.576076734459726E-4-3.887022797674847E-5i
0.006913827655310622      0.0025                   -0.0013468807801683327-3.25385177747477E-5i       -3.6704015735737985E-4-3.85373442550813E-5i
0.006961923847695391      0.0025                   -0.0013025598852626802-3.2532299887395454E-5i     -3.760349288109857E-4-3.820446169321463E-5i
0.00701002004008016       0.0025                   -0.0012582389903570334-3.2526082000043305E-5i     -3.8460099732565384E-4-3.787158026727584E-5i
0.00705811623246493       0.0025                   -0.0012139180954513894-3.251986411269098E-5i      -3.927471268456281E-4-3.753869995404354E-5i
0.0071062124248496995     0.0025                   -0.0011695972005457411-3.251364622533872E-5i      -4.004818440509785E-4-3.720582073092458E-5i
0.007154308617234469      0.0025                   -0.0011252763056400997-3.250742833798645E-5i      -4.0781344633295034E-4-3.687294257593346E-5i
0.007202404809619239      0.0025                   -0.001080955410734448-3.250121045063434E-5i       -4.147500094495882E-4-3.6540065467671986E-5i
0.007250501002004008      0.0025                   -0.001036634515828791-3.249499256328226E-5i       -4.2129939487683347E-4-3.6207189385309424E-5i
0.007298597194388778      0.0025                   -0.0010284322564981345-3.242090472787358E-5i      -4.104775503042217E-4-3.590590038233958E-5i
0.007346693386773547      0.0025                   -9.855659007420511E-4-3.241943702737707E-5i       -4.1055196522546715E-4-3.557880033986962E-5i
0.007394789579158317      0.0025                   -9.426995449859643E-4-3.2417969326880615E-5i      -4.1022686730107435E-4-3.5251734440358795E-5i
0.007442885771543086      0.0025                   -8.998331892298948E-4-3.2416501626383887E-5i      -4.0951000152965604E-4-3.4924702021908846E-5i
0.007490981963927856      0.0025                   -8.418720484977089E-4-3.241977096766237E-5i       -4.491335770561019E-4-3.458492748051869E-5i
0.0075390781563126254     0.0025                   -8.096239987184987E-4-3.240501294687057E-5i       -4.352442199036565E-4-3.4292717053750554E-5i
0.007587174348697395      0.0025                   -7.77375948939289E-4-3.2390254926078483E-5i       -4.209023093690288E-4-3.4000757994732275E-5i
0.007635270541082165      0.0025                   -7.561316020060151E-4-3.229391095292672E-5i       -4.2512519648216403E-4-3.3590435730365535E-5i
0.0076833667334669335     0.0025                   -7.341267324968504E-4-3.225521180232025E-5i       -4.2758624031222323E-4-3.328693188038617E-5i
0.007731462925851704      0.0025                   -7.121218629876902E-4-3.2216512651713965E-5i      -4.297265237840019E-4-3.298360499721256E-5i
0.007779559118236473      0.0025                   -6.901169934785292E-4-3.217781350110745E-5i       -4.315519960849789E-4-3.268045179861635E-5i
0.007827655310621243      0.0025                   -6.681121239693658E-4-3.213911435050115E-5i       -4.330684601860245E-4-3.23774690830388E-5i
0.007875751503006012      0.0025                   -6.461072544602048E-4-3.210041519989464E-5i       -4.342815773060917E-4-3.207465372712675E-5i
0.007923847695390781      0.0025                   -6.241023849510472E-4-3.206171604928818E-5i       -4.351968712141693E-4-3.177200268335967E-5i
0.007971943887775551      0.0025                   -6.020975154418808E-4-3.202301689868182E-5i       -4.3581973237563697E-4-3.146951297776219E-5i
0.008020040080160322      0.0025                   -5.800926459327074E-4-3.198431774807557E-5i       -4.361554219493582E-4-3.1167181707698545E-5i
0.00806813627254509       0.0025                   -5.580877764235562E-4-3.194561859746917E-5i       -4.362090756418139E-4-3.0865006039746215E-5i
0.00811623246492986       0.0025                   -5.360829069143902E-4-3.1906919446862724E-5i      -4.359857074242256E-4-3.056298320764577E-5i
0.00816432865731463       0.0025                   -5.14078037405225E-4-3.18682202962565E-5i         -4.3549021311828405E-4-3.026111051032138E-5i
0.008212424849699399      0.0025                   -4.920731678960642E-4-3.182952114564997E-5i       -4.3472737385584514E-4-2.9959385309973366E-5i
0.00826052104208417       0.0025                   -4.7006829838690256E-4-3.179082199504361E-5i      -4.337018594177981E-4-2.9657805030235444E-5i
0.008308617234468938      0.0025                   -4.480634288777461E-4-3.175212284443706E-5i       -4.324182314569796E-4-2.9356367154396422E-5i
0.008356713426853707      0.0025                   -4.260585593685792E-4-3.1713423693830725E-5i      -4.308809466097572E-4-2.9055069223684096E-5i
0.008404809619238477      0.0025                   -4.0405368985941235E-4-3.16747245432245E-5i       -4.2909435950079316E-4-2.8753908835606708E-5i
0.008452905811623246      0.0025                   -4.064167061166111E-4-3.1382608558919815E-5i      -4.298996917799266E-4-2.842340781414314E-5i
0.008501002004008017      0.0025                   -3.861140766601989E-4-3.132466170919093E-5i       -4.282172976361196E-4-2.811712067857091E-5i
0.008549098196392785      0.0025                   -3.5035167977838814E-4-3.1538114310339076E-5i     -4.2180348115612146E-4-2.786911328132582E-5i
0.008597194388777554      0.0025                   -3.399644343103094E-4-3.145552900671288E-5i       -4.2107003816451176E-4-2.7600198081633364E-5i
0.008645290581162325      0.0025                   -3.2957718884225277E-4-3.13729437030865E-5i       -4.201187593047231E-4-2.7331582522582525E-5i
0.008693386773547095      0.0025                   -3.191899433741751E-4-3.1290358399460677E-5i      -4.1895326010984676E-4-2.706326163088439E-5i
0.008741482965931864      0.0025                   -3.0880269790609875E-4-3.120777309583456E-5i      -4.1757707654138036E-4-2.679523054270416E-5i
0.008789579158316633      0.0025                   -2.984154524380302E-4-3.1125187792208214E-5i      -4.1599366716633696E-4-2.6527484500665257E-5i
0.008837675350701403      0.0025                   -2.8802820696995887E-4-3.1042602488582054E-5i     -4.1420641526319533E-4-2.6260018850952913E-5i
0.008885771543086172      0.0025                   -2.776409615018907E-4-3.096001718495594E-5i       -4.1221863085947035E-4-2.5992829040511938E-5i
0.008933867735470943      0.0025                   -2.672537160338189E-4-3.087743188132975E-5i       -4.1003355270349676E-4-2.5725910614333733E-5i
0.008981963927855711      0.0025                   -2.568664705657475E-4-3.079484657770363E-5i       -4.076543501728085E-4-2.5459259212832037E-5i
0.00903006012024048       0.0025                   -2.4647922509767614E-4-3.0712261274077447E-5i     -4.0508412512160394E-4-2.5192870569300793E-5i
0.00907815631262525       0.0025                   -2.3609197962960217E-4-3.062967597045144E-5i      -4.023259136694162E-4-2.492674050745432E-5i
0.009126252505010021      0.0025                   -2.257047341615321E-4-3.054709066682526E-5i       -3.9938268793324975E-4-2.4660864939044687E-5i
0.00917434869739479       0.0025                   -2.153174886934603E-4-3.0464505363199108E-5i      -3.9625735770525594E-4-2.439523986155398E-5i
0.009222444889779559      0.0025                   -2.0493024322539022E-4-3.0381920059572968E-5i     -3.929527720778755E-4-2.4129861355958526E-5i
0.00927054108216433       0.0025                   -1.9454299775731754E-4-3.029933475594672E-5i      -3.894717210184102E-4-2.3864725584563604E-5i
0.009318637274549098      0.0025                   -1.8415575228925007E-4-3.0216749452320634E-5i     -3.858169368948449E-4-2.3599828788904112E-5i
0.009366733466933869      0.0025                   -1.7376850682117567E-4-3.0134164148694413E-5i     -3.819910959546372E-4-2.3335167287710542E-5i
0.009414829659318637      0.0025                   -1.6338126135310646E-4-3.00515788450683E-5i       -3.779968197581879E-4-2.3070737474937815E-5i
0.009462925851703406      0.0025                   -1.5320151095495234E-4-3.0051596538798353E-5i     -3.7366148972537523E-4-2.2989321937200517E-5i
0.009511022044088177      0.0025                   -1.4671994756750711E-4-2.994433379785341E-5i      -3.749670827138359E-4-2.273661397957329E-5i
0.009559118236472947      0.0025                   -1.4023838418006883E-4-2.9837071056908247E-5i     -3.761399120046949E-4-2.2484169714779394E-5i
0.009607214428857716      0.0025                   -1.3375682079262187E-4-2.9729808315963303E-5i     -3.771819715458545E-4-2.2231985182475826E-5i
0.009655310621242485      0.0025                   -1.2727525740517838E-4-2.962254557501825E-5i      -3.7809521555524017E-4-2.198005650123078E-5i
0.009703406813627255      0.0025                   -1.210152373767627E-4-2.957992503199059E-5i       -3.7803276891507174E-4-2.1635766975423556E-5i
0.009751503006012024      0.0025                   -1.1590500670240547E-4-2.948739236039291E-5i      -3.753390134138305E-4-2.1408371343776562E-5i
0.009799599198396795      0.0025                   -1.1079477602804629E-4-2.9394859688795402E-5i     -3.7250579278296316E-4-2.1181344122226787E-5i
0.009847695390781563      0.0025                   -1.0568454535368776E-4-2.9302327017197848E-5i     -3.69535150467583E-4-2.095467991282424E-5i
0.009895791583166332      0.0025                   -1.0057431467933194E-4-2.920979434560028E-5i      -3.664290901860671E-4-2.072837342256054E-5i
0.009943887775551103      0.0025                   -9.546408400497018E-5-2.9117261674002727E-5i      -3.631895768907616E-4-2.0502419460831474E-5i
0.009991983967935873      0.0025                   -9.035385333061108E-5-2.9024729002405136E-5i      -3.598185377009977E-4-2.027681293697252E-5i
0.010040080160320642      0.0025                   -8.524362265625255E-5-2.8932196330807575E-5i      -3.563178628092703E-4-2.005154885786452E-5i
0.01008817635270541       0.0025                   -8.013339198189575E-5-2.883966365920997E-5i       -3.526894063614984E-4-1.9826622325608533E-5i
0.01013627254509018       0.0025                   -7.502316130753592E-5-2.87471309876124E-5i        -3.489349873122148E-4-1.960202853526741E-5i
0.01018436873747495       0.0025                   -6.991293063317913E-5-2.8654598316014802E-5i      -3.450563902555391E-4-1.937776277266971E-5i
0.01023246492985972       0.0025                   -6.480269995881843E-5-2.8562065644417286E-5i      -3.410553662326948E-4-1.915382041227784E-5i
0.01028056112224449       0.0025                   -5.9692469284463364E-5-2.8469532972819593E-5i     -3.369336335169044E-4-1.893019691511314E-5i
0.010328657314629258      0.0025                   -5.574118943080068E-5-2.8410586393720237E-5i      -3.353050966379411E-4-1.8785994174563038E-5i
0.010376753507014029      0.0025                   -5.2501233000773126E-5-2.8297218460813774E-5i     -3.3502672105533197E-4-1.8574912053819677E-5i
0.010424849699398797      0.0025                   -4.9261276570743834E-5-2.8183850527907365E-5i     -3.346511272053738E-4-1.8364185216963015E-5i
0.010472945891783568      0.0025                   -4.6021320140716276E-5-2.8070482595000902E-5i     -3.3417965449015E-4-1.8153808769151362E-5i
0.010521042084168337      0.0025                   -4.278136371068872E-5-2.795711466209444E-5i       -3.336136178198085E-4-1.794377790504969E-5i
0.010569138276553106      0.0025                   -3.954140728065943E-5-2.784374672918803E-5i       -3.329543081698447E-4-1.7734087906791198E-5i
0.010617234468937876      0.0025                   -3.63014508506284E-5-2.7730378796281567E-5i       -3.3220299312322274E-4-1.7524734141997828E-5i
0.010665330661322647      0.0025                   -3.306149442059911E-5-2.7617010863375158E-5i      -3.3136091739782226E-4-1.7315712061851352E-5i
0.010713426853707415      0.0025                   -3.0878432249492084E-5-2.753755493623125E-5i      -3.282893638898599E-4-1.7047627882612922E-5i
0.010761523046092184      0.0025                   -2.847699383583648E-5-2.7437229737649574E-5i      -3.2601266763955896E-4-1.686022711746871E-5i
0.010809619238476955      0.0025                   -2.6075555422178705E-5-2.733690453906783E-5i      -3.2364338545941003E-4-1.6673241083526526E-5i
0.010857715430861723      0.0025                   -2.3674117008522233E-5-2.7236579340486115E-5i     -3.211827477272135E-4-1.6486664269408835E-5i
0.010905811623246494      0.0025                   -2.1272678594866845E-5-2.7136254141904372E-5i     -3.1863196311619736E-4-1.6300491260960896E-5i
0.010953907815631263      0.0025                   -1.8871240181208868E-5-2.703592894332269E-5i      -3.15992219071543E-4-1.611471673911814E-5i
0.011002004008016032      0.0025                   -1.6469801767553032E-5-2.6935603744741008E-5i     -3.1326468227433366E-4-1.5929335477826792E-5i
0.011050100200400802      0.0025                   -1.4068363353896777E-5-2.683527854615923E-5i      -3.104504990934865E-4-1.574434234201959E-5i
0.011098196392785573      0.0025                   -1.1666924940240955E-5-2.673495334757751E-5i      -3.075507960258644E-4-1.5559732285644803E-5i
0.011146292585170341      0.0025                   -9.265486526582965E-6-2.663462814899582E-5i       -3.045666801250175E-4-1.5375500349745642E-5i
0.01119438877755511       0.0025                   -6.864048112926492E-6-2.6534302950414118E-5i      -3.014992394188659E-4-1.519164166058844E-5i
0.011242484969939879      0.0025                   -4.462609699270453E-6-2.6433977751832375E-5i      -2.983495433166804E-4-1.5008151427841013E-5i
0.01129058116232465       0.0025                   -2.0611712856144146E-6-2.6333652553250713E-5i     -2.9511864300563607E-4-1.4825024942794857E-5i
0.01133867735470942       0.0025                   -1.450840502491453E-6-2.6256425594299983E-5i      -2.954850087832517E-4-1.4697412244898369E-5i
0.011386773547094189      0.0025                   6.837497481745891E-8-2.6139127195011578E-5i       -2.9454240885446945E-4-1.4521944442520669E-5i
0.011434869739478958      0.0025                   1.5875904521229015E-6-2.6021828795723065E-5i      -2.9353168742490566E-4-1.4346852833730886E-5i
0.011482965931863728      0.0025                   3.106805929432681E-6-2.5904530396434822E-5i       -2.9245370047154294E-4-1.4172132691489052E-5i
0.011531062124248499      0.0025                   4.626021406741593E-6-2.5787231997146526E-5i       -2.913092896901855E-4-1.3997779367622029E-5i
0.011579158316633267      0.0025                   6.145236884049637E-6-2.5669933597858012E-5i       -2.900992827920921E-4-1.3823788291183763E-5i
0.011627254509018036      0.0025                   7.664452361357682E-6-2.5552635198569553E-5i       -2.8882449379318486E-4-1.365015496686007E-5i
0.011675350701402805      0.0025                   7.382188572732954E-6-2.5477344162851796E-5i       -2.83523800754001E-4-1.339254774920958E-5i
0.011723446893787575      0.0025                   8.443761315084664E-6-2.5368091890393527E-5i       -2.8213847510410496E-4-1.3241231746717191E-5i
0.011771543086172346      0.0025                   9.50533405743735E-6-2.525883961793538E-5i         -2.806909954900326E-4-1.3090352432080825E-5i
0.011819639278557115      0.0025                   1.0566906799789656E-5-2.5149587345477216E-5i      -2.7918212065804584E-4-1.2939904474421374E-5i
0.011867735470941883      0.0025                   1.1628479542141793E-5-2.5040335073018957E-5i      -2.7761259705456236E-4-1.2789882629277058E-5i
0.011915831663326654      0.0025                   1.2690052284495678E-5-2.4931082800560827E-5i      -2.7598315907439346E-4-1.2640281736859537E-5i
0.011963927855711423      0.0025                   1.3751625026845924E-5-2.4821830528102534E-5i      -2.7429452930298297E-4-1.2491096720352155E-5i
0.012012024048096193      0.0025                   1.4813197769200561E-5-2.4712578255644312E-5i      -2.725474187528443E-4-1.2342322584248384E-5i
0.012060120240480962      0.0025                   1.587477051155032E-5-2.4603325983186104E-5i       -2.7074252709430557E-4-1.2193954412730915E-5i
0.012108216432865731      0.0025                   1.6936343253903547E-5-2.4494073710727924E-5i      -2.688805428807959E-4-1.2045987368088664E-5i
0.012156312625250501      0.0025                   1.799791599625634E-5-2.4384821438269716E-5i       -2.669621437687559E-4-1.1898416689171615E-5i
0.012204408817635272      0.0025                   1.9059488738611737E-5-2.4275569165811548E-5i      -2.649879967323536E-4-1.1751237689882658E-5i
0.01225250501002004       0.0025                   2.012106148096193E-5-2.4166316893353435E-5i       -2.629587582731499E-4-1.1604445757704199E-5i
0.01230060120240481       0.0025                   2.118263422331689E-5-2.405706462089516E-5i        -2.6087507462484687E-4-1.1458036352259413E-5i
0.01234869739478958       0.0025                   2.2244206965667083E-5-2.394781234843691E-5i       -2.5873758195323206E-4-1.1312005003908007E-5i
0.012396793587174349      0.0025                   2.3305779708019878E-5-2.3838560075978716E-5i      -2.56546906551503E-4-1.1166347312373063E-5i
0.01244488977955912       0.0025                   2.4367352450370937E-5-2.3729307803520495E-5i      -2.543036650310203E-4-1.102105894540195E-5i
0.012492985971943888      0.0025                   2.1383761479927977E-5-2.3639598410652487E-5i      -2.5028833585693556E-4-1.086641837212249E-5i
0.012541082164328657      0.0025                   2.161776190184395E-5-2.3549726094604446E-5i       -2.524097795779546E-4-1.0701246565216793E-5i
0.012589178356713427      0.0025                   2.3883340485195744E-5-2.3523658955258447E-5i      -2.504103481690717E-4-1.0595636850429047E-5i
0.012637274549098198      0.0025                   2.428682995427164E-5-2.341962356575381E-5i        -2.4903799850563405E-4-1.0459415548650058E-5i
0.012685370741482967      0.0025                   2.4690319423346886E-5-2.3315588176249184E-5i      -2.476199450625014E-4-1.0323571284850558E-5i
0.012733466933867735      0.0025                   2.5093808892427878E-5-2.3211552786744563E-5i      -2.4615670572952433E-4-1.0188099786645636E-5i
0.012781563126252504      0.0025                   2.5497298361504153E-5-2.3107517397239826E-5i      -2.446487906014278E-4-1.0052996845956696E-5i
0.012829659318637275      0.0025                   2.5900787830581743E-5-2.300348200773521E-5i       -2.4309670212388105E-4-9.918258317807166E-6i
0.012877755511022045      0.0025                   2.630427729966256E-5-2.2899446618230695E-5i       -2.4150093523637452E-4-9.783880119143509E-6i
0.012925851703406814      0.0025                   2.6707766768740678E-5-2.2795411228725986E-5i      -2.3986197751186097E-4-9.649858227682958E-6i
0.012973947895791583      0.0025                   2.7111256237817658E-5-2.2691375839221314E-5i      -2.3818030929328873E-4-9.516188680787454E-6i
0.013022044088176353      0.0025                   2.751474570689464E-5-2.2587340449716737E-5i       -2.3645640382713044E-4-9.38286757436219E-6i
0.013070140280561124      0.0025                   2.791823517597292E-5-2.2483305060212058E-5i       -2.3469072739394436E-4-9.249891061778319E-6i
0.013118236472945893      0.0025                   2.8321724645051418E-5-2.2379269670707392E-5i      -2.3288373943608563E-4-9.11725535281915E-6i
0.013166332665330661      0.0025                   2.8725214114129916E-5-2.2275234281202795E-5i      -2.3103589268259049E-4-8.984956712650715E-6i
0.01321442885771543       0.0025                   2.9128703583209282E-5-2.2171198891698197E-5i      -2.2914763327135372E-4-8.85299146081296E-6i
0.0132625250501002        0.0025                   2.9532193052286913E-5-2.20671635021936E-5i        -2.2721940086864288E-4-8.721355970234199E-6i
0.013310621242484971      0.0025                   2.993568252136411E-5-2.1963128112688867E-5i       -2.2525162878602302E-4-8.59004666626684E-6i
0.01335871743486974       0.0025                   3.033917199044304E-5-2.185909272318427E-5i        -2.2324474409473694E-4-8.459060025742889E-6i
0.013406813627254509      0.0025                   3.0031638361630725E-5-2.1783838530912286E-5i      -2.231576140870673E-4-8.424000493128038E-6i
0.01345490981963928       0.0025                   3.0184732158936717E-5-2.1675066044582318E-5i      -2.219873600047352E-4-8.315534675155276E-6i
0.013503006012024048      0.0025                   3.033782595624184E-5-2.1566293558252403E-5i       -2.207824005807186E-4-8.20745516172947E-6i
0.013551102204408819      0.0025                   3.04909197535487E-5-2.145752107192249E-5i         -2.1954310534837986E-4-8.099757839581108E-6i
0.013599198396793587      0.0025                   3.0644013550853826E-5-2.134874858559252E-5i       -2.1826983861337297E-4-7.992438653630498E-6i
0.013647294589178356      0.0025                   3.079710734815982E-5-2.123997609926266E-5i        -2.1696295954577716E-4-7.88549360596168E-6i
0.013695390781563127      0.0025                   3.0584722865525634E-5-2.1162428251325012E-5i      -2.150370027595574E-4-7.728070618249663E-6i
0.013743486973947897      0.0025                   3.0627529256825516E-5-2.106855409917607E-5i       -2.1378020920131036E-4-7.618948892267524E-6i
0.013791583166332666      0.0025                   3.067033564812952E-5-2.0974679947027277E-5i       -2.1249127553251497E-4-7.510181390593007E-6i
0.013839679358717435      0.0025                   3.071314203943298E-5-2.0880805794878485E-5i       -2.111705368368619E-4-7.401764420183625E-6i
0.013887775551102205      0.0025                   3.075594843073476E-5-2.0786931642729587E-5i       -2.0981832355618045E-4-7.293694339156305E-6i
0.013935871743486974      0.0025                   3.079875482203771E-5-2.069305749058076E-5i        -2.084349615705651E-4-7.185967555903839E-6i
0.013983967935871745      0.0025                   3.084156121334217E-5-2.059918333843197E-5i        -2.0702077227679675E-4-7.078580528230712E-6i
0.014032064128256513      0.0025                   3.0884367604644435E-5-2.050530918628314E-5i       -2.055760726651885E-4-6.971529762506556E-6i
0.014080160320641284      0.0025                   3.092717399594714E-5-2.041143503413431E-5i        -2.0410117539484957E-4-6.864811812835829E-6i
0.014128256513026053      0.0025                   3.096998038724995E-5-2.031756088198549E-5i        -2.0259638886739785E-4-6.758423280246318E-6i
0.014176352705410821      0.0025                   3.10127867785533E-5-2.0223686729836665E-5i        -2.010620172991973E-4-6.652360811892123E-6i
0.014224448897795592      0.0025                   3.1055593169856E-5-2.012981257768783E-5i          -1.9949836079209238E-4-6.546621100274833E-6i
0.01427254509018036       0.0025                   3.10983995611587E-5-2.003593842553897E-5i         -1.97905715402754E-4-6.441200882478749E-6i
0.014320641282565131      0.0025                   3.070948341152204E-5-1.995953157336405E-5i        -1.9720158698920953E-4-6.373571442805018E-6i
0.0143687374749499        0.0025                   3.067223506438184E-5-1.9860115702859555E-5i       -1.9610909703415423E-4-6.283418808579385E-6i
0.01441683366733467       0.0025                   3.063498671724077E-5-1.9760699832354896E-5i       -1.9499030186614344E-4-6.19362347642315E-6i
0.01446492985971944       0.0025                   3.059773837010057E-5-1.9661283961850372E-5i       -1.938454638813196E-4-6.1041818822258275E-6i
0.014513026052104208      0.0025                   3.0560490022960365E-5-1.9561868091345902E-5i      -1.926748419975005E-4-6.015090509122611E-6i
0.014561122244488979      0.0025                   3.052324167582103E-5-1.9462452220841297E-5i       -1.9147869171161575E-4-5.926345886714914E-6i
0.014609218436873747      0.0025                   3.0485993328679094E-5-1.936303635033672E-5i       -1.9025726515603305E-4-5.837944590304199E-6i
0.014657314629258518      0.0025                   3.044874498153889E-5-1.9263620479832195E-5i       -1.8901081115375024E-4-5.749883240143482E-6i
0.014705410821643287      0.0025                   2.9969570677248862E-5-1.919129090538058E-5i       -1.8682559540369453E-4-5.605633410782202E-6i
0.014753507014028057      0.0025                   2.9884616413434714E-5-1.9101343572240325E-5i      -1.8587652113553253E-4-5.521405215797115E-6i
0.014801603206412826      0.0025                   2.9799662149622734E-5-1.9011396239100275E-5i      -1.849042965304835E-4-5.437519106024808E-6i
0.014849699398797595      0.0025                   2.9714707885808965E-5-1.8921448905960165E-5i      -1.8390914653108878E-4-5.353971757560519E-6i
0.014897795591182365      0.0025                   2.9629753621996704E-5-1.8831501572820014E-5i      -1.8289129317507137E-4-5.270759889422954E-6i
0.014945891783567134      0.0025                   2.954479935818365E-5-1.8741554239679822E-5i       -1.8185095564205944E-4-5.187880262863997E-6i
0.014993987975951905      0.0025                   2.9459845094369718E-5-1.8651606906539647E-5i      -1.80788350299431E-4-5.105329680691256E-6i
0.015042084168336673      0.0025                   2.9374890830558063E-5-1.856165957339958E-5i       -1.7970369074728464E-4-5.023104986603467E-6i
0.015090180360721444      0.0025                   2.9289936566743047E-5-1.8471712240259345E-5i      -1.785971878625171E-4-4.94120306453959E-6i
0.015138276553106213      0.0025                   2.9204982302931393E-5-1.8381764907119278E-5i      -1.774690498421071E-4-4.859620838038446E-6i
0.015186372745490983      0.0025                   2.912002803911822E-5-1.829181757397909E-5i        -1.7631948224553648E-4-4.778355269612605E-6i
0.015234468937875752      0.0025                   2.9035073775304614E-5-1.820187024083897E-5i       -1.7514868803643316E-4-4.697403360132863E-6i
0.01528256513026052       0.0025                   2.8950119511492525E-5-1.8111922907698875E-5i      -1.7395686762341144E-4-4.616762148224063E-6i
0.015330661322645291      0.0025                   2.8865165247679136E-5-1.802197557455862E-5i       -1.727442189001538E-4-4.536428709674027E-6i
0.01537875751503006       0.0025                   2.8780210983865746E-5-1.7932028241418526E-5i      -1.7151093728474205E-4-4.456400156851627E-6i
0.01542685370741483       0.0025                   2.869525672005149E-5-1.7842080908278215E-5i       -1.7025721575823766E-4-4.376673638136482E-6i
0.0154749498997996        0.0025                   2.8610302456240702E-5-1.775213357513831E-5i       -1.6898324490256377E-4-4.297246337359705E-6i
0.01552304609218437       0.0025                   2.7916575021678935E-5-1.7688892136840067E-5i      -1.6865691594739578E-4-4.262208828996876E-6i
0.015571142284569139      0.0025                   2.7330456764082826E-5-1.7620955435728483E-5i      -1.6699064971787623E-4-4.1595922425011025E-6i
0.01561923847695391       0.0025                   2.7195663790051394E-5-1.7539117515736653E-5i      -1.6611156590768858E-4-4.084457194224125E-6i
0.01566733466933868       0.0025                   2.706087081601595E-5-1.7457279595744532E-5i       -1.6521434351905883E-4-4.009620302268143E-6i