% Model:              FEA.mph
% Version:            COMSOL 6.0.0.318
% Date:               Jul 31 2022, 00:26
% Dimension:          3
% Nodes:              500
% Expressions:        3
% Description:        Magnetic flux density, x component, Magnetic flux density, y component, Magnetic flux density, z component
% Length unit:        m
% x                       y                        z                        mf.Bx (T) @ freq=500, Material Switch 1=Stainless Steel mf.By (T) @ freq=500, Material Switch 1=Stainless Steel mf.Bz (T) @ freq=500, Material Switch 1=Stainless Steel
-0.02                     0                        0.0015                   3.987686110316292E-5+2.3082512078195418E-6i       -8.856228640404852E-7+5.496116281651249E-8i       -1.5920130399110885E-4+6.1077686183551445E-6i
-0.019919839679358717     0                        0.0015                   3.867605284525219E-5+2.4400079233531674E-6i       -9.641573569620955E-7+5.465247906997315E-8i       -1.6122820801418609E-4+6.124523322048911E-6i
-0.019839679358717437     0                        0.0015                   3.7475244587342285E-5+2.5717646388867752E-6i      -1.042691849883733E-6+5.43437953234372E-8i        -1.632551120372631E-4+6.141278025742668E-6i
-0.019759519038076153     0                        0.0015                   3.6274436329431216E-5+2.703521354420432E-6i       -1.121226342805289E-6+5.403511157690633E-8i       -1.6528201606033947E-4+6.158032729436394E-6i
-0.01967935871743487      0                        0.0015                   3.507362807152088E-5+2.835278069954047E-6i        -1.1997608357268994E-6+5.372642783036869E-8i      -1.6730892008341638E-4+6.174787433130147E-6i
-0.01959919839679359      0                        0.0015                   3.3872819813610495E-5+2.9670347854876703E-6i      -1.278295328648564E-6+5.341774408383951E-8i       -1.69335824106493E-4+6.191542136823886E-6i
-0.019519038076152306     0                        0.0015                   3.2672011555700395E-5+3.098791501021276E-6i       -1.3568298215700658E-6+5.310906033730187E-8i      -1.7136272812956995E-4+6.208296840517629E-6i
-0.019438877755511022     0                        0.0015                   3.1471203297789685E-5+3.230548216554931E-6i       -1.435364314491771E-6+5.2800376590760837E-8i      -1.733896321526471E-4+6.225051544211403E-6i
-0.01935871743486974      0                        0.0015                   3.0270395039879192E-5+3.3623049320885307E-6i      -1.513898807413178E-6+5.249169284422658E-8i       -1.7541653617572336E-4+6.2418062479051254E-6i
-0.01927855711422846      0                        0.0015                   2.9069586781968625E-5+3.494061647622176E-6i       -1.5924333003350594E-6+5.21830090976991E-8i       -1.7744344019880043E-4+6.258560951598875E-6i
-0.019198396793587175     0                        0.0015                   2.7868778524058125E-5+3.6258183631558014E-6i      -1.6709677932565207E-6+5.187432535115468E-8i      -1.7947034422187744E-4+6.275315655292628E-6i
-0.01911823647294589      0                        0.0015                   2.6667970266147165E-5+3.7575750786894592E-6i      -1.7495022861782394E-6+5.156564160462127E-8i      -1.8149724824495413E-4+6.292070358986381E-6i
-0.01903807615230461      0                        0.0015                   2.5467162008236557E-5+3.889331794223077E-6i       -1.8280367790997684E-6+5.125695785808193E-8i      -1.8352415226803126E-4+6.308825062680118E-6i
-0.018957915831663327     0                        0.0015                   2.426635375032614E-5+4.021088509756689E-6i        -1.9065712720214465E-6+5.0948274111559535E-8i     -1.855510562911082E-4+6.325579766373879E-6i
-0.018877755511022044     0                        0.0015                   7.743212730447106E-6+4.945747261065472E-6i        1.1025702110464613E-6+3.914629530987862E-8i       -2.0777445051872766E-4+7.372124771299192E-6i
-0.01879759519038076      0                        0.0015                   6.136780829202765E-6+5.136811649097205E-6i        7.504423171159763E-7+5.020532414905514E-8i        -2.0745806751700348E-4+7.2433162865060765E-6i
-0.01871743486973948      0                        0.0015                   4.530348927958696E-6+5.32787603712892E-6i         3.9831442318625024E-7+6.12643529881944E-8i        -2.0714168451527876E-4+7.114507801712963E-6i
-0.018637274549098196     0                        0.0015                   2.9239170267142205E-6+5.518940425160632E-6i       4.6186529255982066E-8+7.232338182736753E-8i       -2.0682530151355403E-4+6.985699316919819E-6i
-0.018557114228456913     0                        0.0015                   1.3174851254703682E-6+5.710004813192372E-6i       -3.0594136467450295E-7+8.33824106665271E-8i       -2.0650891851183007E-4+6.8568908321266985E-6i
-0.018476953907815633     0                        0.0015                   -2.8894677577437854E-7+5.901069201224093E-6i      -6.58069258604229E-7+9.444143950567652E-8i        -2.0619253551010572E-4+6.728082347333583E-6i
-0.01839679358717435      0                        0.0015                   -1.8953786770183664E-6+6.09213358925584E-6i       -1.010197152534714E-6+1.0550046834481577E-7i      -2.058761525083821E-4+6.599273862540494E-6i
-0.018316633266533065     0                        0.0015                   -3.501810578262083E-6+6.283197977287547E-6i       -1.3623250464648738E-6+1.1655949718398552E-7i     -2.0555976950665736E-4+6.470465377747354E-6i
-0.018236472945891785     0                        0.0015                   -5.10824247950683E-6+6.4742623653193074E-6i       -1.7144529403948167E-6+1.276185260231451E-7i      -2.0524338650493355E-4+6.341656892954256E-6i
-0.0181563126252505       0                        0.0015                   -6.714674380751062E-6+6.665326753351034E-6i       -2.0665808343249764E-6+1.3867755486230806E-7i     -2.0492700350320897E-4+6.212848408161127E-6i
-0.018076152304609218     0                        0.0015                   -8.321106281994724E-6+6.8563911413827344E-6i      -2.4187087282550278E-6+1.4973658370146426E-7i     -2.0461062050148413E-4+6.08403992336799E-6i
-0.017995991983967938     0                        0.0015                   -9.92753818324004E-6+7.047455529414525E-6i        -2.7708366221854044E-6+1.60795612540634E-7i       -2.0429423749976036E-4+5.95523143857489E-6i
-0.017915831663326654     0                        0.0015                   -1.1533970084484164E-5+7.238519917446206E-6i      -3.1229645161157268E-6+1.7185464137978003E-7i     -2.039778544980358E-4+5.826422953781761E-6i
-0.01783567134268537      0                        0.0015                   -1.3140401985728422E-5+7.429584305477958E-6i      -3.475092410045724E-6+1.8291367021892605E-7i      -2.03661471496312E-4+5.697614468988671E-6i
-0.017755511022044087     0                        0.0015                   -1.4746833886972302E-5+7.6206486935096824E-6i     -3.827220303975992E-6+1.939726990580958E-7i       -2.0334508849458705E-4+5.568805984195524E-6i
-0.017675350701402807     0                        0.0015                   -1.6353265788216398E-5+7.811713081541369E-6i      -4.179348197905989E-6+2.050317278972486E-7i       -2.0302870549286295E-4+5.439997499402403E-6i
-0.017595190380761523     0                        0.0015                   -1.7959697689460847E-5+8.002777469573109E-6i      -4.531476091836366E-6+2.160907567364048E-7i       -2.027123224911388E-4+5.311189014609293E-6i
-0.01751503006012024      0                        0.0015                   -1.9566129590705512E-5+8.193841857604886E-6i      -4.883603985766363E-6+2.2714978557557793E-7i      -2.0239593948941429E-4+5.182380529816161E-6i
-0.01743486973947896      0                        0.0015                   -2.117256149194942E-5+8.384906245636588E-6i       -5.2357318796967395E-6+2.3820881441473073E-7i     -2.020795564876899E-4+5.053572045023066E-6i
-0.017354709418837676     0                        0.0015                   -2.277899339319411E-5+8.575970633668336E-6i       -5.587859773626791E-6+2.4926784325388353E-7i      -2.0176317348596562E-4+4.924763560229964E-6i
-0.017274549098196392     0                        0.0015                   -2.4385425294437936E-5+8.767035021700057E-6i      -5.939987667557113E-6+2.603268720930431E-7i       -2.0144679048424174E-4+4.795955075436805E-6i
-0.01719438877755511      0                        0.0015                   -2.5991857195682222E-5+8.958099409731782E-6i      -6.29211556148711E-6+2.713859009322044E-7i        -2.0113040748251712E-4+4.667146590643705E-6i
-0.01711422845691383      0                        0.0015                   -2.759828909692697E-5+9.14916379776354E-6i        -6.6442434554173785E-6+2.824449297713555E-7i      -2.0081402448079337E-4+4.538338105850598E-6i
-0.017034068136272545     0                        0.0015                   -2.9204720998171038E-5+9.34022818579528E-6i       -6.996371349347565E-6+2.9350395861052185E-7i      -2.0049764147906824E-4+4.409529621057483E-6i
-0.01695390781563126      0                        0.0015                   -3.0811152899414647E-5+9.531292573826969E-6i      -7.3484992432778335E-6+3.045629874496679E-7i      -2.0018125847734422E-4+4.2807211362643725E-6i
-0.01687374749498998      0                        0.0015                   -2.2128602157466876E-5+9.198395494105307E-6i      3.220413395210912E-6-1.6227523313006907E-7i       -2.229458529703538E-4+5.210553964913732E-6i
-0.016793587174348697     0                        0.0015                   -2.3061263853440346E-5+9.341594551715826E-6i      3.540314781434571E-6-1.7152192505068114E-7i       -2.2416019352052377E-4+5.152722016923757E-6i
-0.016713426853707414     0                        0.0015                   -2.3993925549413517E-5+9.4847936093263E-6i        3.860216167658501E-6-1.8076861697130634E-7i       -2.2537453407069376E-4+5.094890068933818E-6i
-0.016633266533066134     0                        0.0015                   -2.4926587245386723E-5+9.627992666936778E-6i      4.180117553882153E-6-1.900153088919197E-7i        -2.2658887462086527E-4+5.037058120943908E-6i
-0.01655310621242485      0                        0.0015                   -2.5859248941359616E-5+9.771191724547275E-6i      4.500018940106146E-6-1.992620008125471E-7i        -2.2780321517103399E-4+4.979226172953912E-6i
-0.016472945891783566     0                        0.0015                   -2.6791910637333987E-5+9.914390782157795E-6i      4.8199203263299215E-6-2.085086927331538E-7i       -2.290175557212049E-4+4.921394224963991E-6i
-0.016392785571142286     0                        0.0015                   -2.772457233330651E-5+1.0057589839768266E-5i      5.1398217125535906E-6-2.1775538465376904E-7i      -2.3023189627137457E-4+4.863562276974004E-6i
-0.016312625250501003     0                        0.0015                   -2.6218223831111793E-5+1.0303338201971297E-5i     -5.016156845060642E-6+5.651957857900704E-8i       -2.41899973213929E-4+4.757606868159548E-6i
-0.01623246492985972      0                        0.0015                   -2.7356287065445064E-5+1.0430886682399324E-5i     -4.788865624177815E-6+4.18251478794684E-8i        -2.4455309556415793E-4+4.688992234333373E-6i
-0.01615230460921844      0                        0.0015                   -2.849435029977812E-5+1.0558435162827298E-5i      -4.561574403295408E-6+2.713071717995645E-8i       -2.472062179143873E-4+4.620377600507211E-6i
-0.016072144288577155     0                        0.0015                   -2.27872638790354E-5+1.0685288737879977E-5i       2.2372026661158628E-7+1.2319658791257334E-8i      -2.4789434867757403E-4+4.533488815948106E-6i
-0.01599198396793587      0                        0.0015                   -2.399580782133171E-5+1.082078918429696E-5i       2.624287826017693E-7+1.67876215244255E-8i         -2.504882841268016E-4+4.463597466399347E-6i
-0.015911823647294588     0                        0.0015                   -2.52043517636291E-5+1.0956289630713938E-5i       3.011372985933618E-7+2.1255584257600442E-8i       -2.530822195760294E-4+4.393706116850575E-6i
-0.015831663326653308     0                        0.0015                   -2.6412895705925626E-5+1.1091790077130963E-5i     3.398458145847374E-7+2.5723546990771997E-8i       -2.556761550252581E-4+4.32381476730185E-6i
-0.015751503006012024     0                        0.0015                   -2.762143964822215E-5+1.1227290523548008E-5i      3.7855433057600463E-7+3.0191509723953715E-8i      -2.582700904744872E-4+4.253923417753119E-6i
-0.01567134268537074      0                        0.0015                   -2.8829983590518892E-5+1.1362790969964965E-5i     4.1726284656732606E-7+3.4659472457115105E-8i      -2.608640259237139E-4+4.184032068204374E-6i
-0.015591182364729459     0                        0.0015                   -3.0038527532816068E-5+1.1498291416381996E-5i     4.559713625582409E-7+3.9127435190299365E-8i       -2.6345796137294223E-4+4.114140718655608E-6i
-0.015511022044088177     0                        0.0015                   -3.124707147511259E-5+1.1633791862799035E-5i      4.946798785498266E-7+4.359539792346372E-8i        -2.660518968221694E-4+4.044249369106833E-6i
-0.015430861723446893     0                        0.0015                   -3.2455615417409335E-5+1.1769292309216005E-5i     5.333883945404501E-7+4.8063360656647556E-8i       -2.686458322713976E-4+3.974358019558125E-6i
-0.015350701402805611     0                        0.0015                   -3.366415935970629E-5+1.1904792755633017E-5i      5.720969105322594E-7+5.253132338983097E-8i        -2.712397677206263E-4+3.904466670009324E-6i
-0.01527054108216433      0                        0.0015                   -3.48727033020026E-5+1.2040293202050028E-5i       6.108054265230116E-7+5.699928612298304E-8i        -2.7383370316985526E-4+3.834575320460608E-6i
-0.015190380761523046     0                        0.0015                   -3.60812472443001E-5+1.2175793648467015E-5i       6.495139425142247E-7+6.146724885616476E-8i        -2.764276386190831E-4+3.7646839709118752E-6i
-0.015110220440881762     0                        0.0015                   -3.7289791186596085E-5+1.231129409488401E-5i      6.882224585063592E-7+6.593521158933293E-8i        -2.790215740683111E-4+3.6947926213630925E-6i
-0.015030060120240482     0                        0.0015                   -3.8498335128893586E-5+1.244679454130103E-5i      7.269309744968675E-7+7.040317432251126E-8i        -2.816155095175385E-4+3.6249012718143543E-6i
-0.014949899799599198     0                        0.0015                   -3.9706879071190544E-5+1.2582294987718008E-5i     7.656394904881347E-7+7.487113705568959E-8i        -2.842094449667668E-4+3.5550099222655805E-6i
-0.014869739478957915     0                        0.0015                   -4.0915423013488045E-5+1.2717795434135043E-5i     8.043480064792935E-7+7.93390997888442E-8i         -2.868033804159959E-4+3.485118572716849E-6i
-0.014789579158316633     0                        0.0015                   -4.212396695578468E-5+1.2853295880552061E-5i      8.430565224704523E-7+8.380706252203608E-8i        -2.893973158652225E-4+3.4152272231681006E-6i
-0.014709418837675351     0                        0.0015                   -4.333251089808023E-5+1.2988796326969049E-5i      8.817650384617196E-7+8.827502525520425E-8i        -2.919912513144494E-4+3.3453358736192776E-6i
-0.014629258517034067     0                        0.0015                   -4.4541054840376644E-5+1.3124296773386053E-5i     9.204735544532036E-7+9.274298798836564E-8i        -2.945851867636787E-4+3.2754445240705733E-6i
-0.014549098196392786     0                        0.0015                   -4.089222274950184E-5+1.3355014996590148E-5i      -1.935682003799573E-6-2.3092416192338244E-7i      -2.888578764831812E-4+3.3952589158762374E-6i
-0.014468937875751504     0                        0.0015                   -4.242151970815667E-5+1.351241673631389E-5i       -1.8333592619809713E-6-2.0217299783335308E-7i     -2.9340861524834207E-4+3.262051013564084E-6i
-0.01438877755511022      0                        0.0015                   -4.3950816666802825E-5+1.3669818476037495E-5i     -1.731036520160635E-6-1.7342183374332372E-7i      -2.979593540134986E-4+3.128843111251849E-6i
-0.014308617234468936     0                        0.0015                   -4.5480113625456786E-5+1.3827220215761237E-5i     -1.6287137783415999E-6-1.4467066965318594E-7i     -3.025100927786552E-4+2.9956352089395327E-6i
-0.014228456913827656     0                        0.0015                   -4.7009410584104676E-5+1.3984621955484924E-5i     -1.5263910365212636E-6-1.1591950556318368E-7i     -3.0706083154381433E-4+2.862427306627298E-6i
-0.014148296593186373     0                        0.0015                   -4.853870754275777E-5+1.4142023695208611E-5i      -1.4240682947026621E-6-8.716834147314077E-8i      -3.1161157030897436E-4+2.729219404315063E-6i
-0.014068136272545089     0                        0.0015                   -5.0068004501410864E-5+1.4299425434932325E-5i     -1.3217455528805912E-6-5.84171773830843E-8i       -3.1616230907413004E-4+2.596011502002774E-6i
-0.013987975951903807     0                        0.0015                   -5.159730146005875E-5+1.4456827174656013E-5i      -1.219422811062857E-6-2.9666013293041388E-8i      -3.207130478392918E-4+2.4628035996906474E-6i
-0.013907815631262525     0                        0.0015                   -5.3126598418712714E-5+1.46142289143797E-5i       -1.1171000692429545E-6-9.148492029984736E-10i     -3.252637866044492E-4+2.3295956973784125E-6i
-0.013827655310621242     0                        0.0015                   -5.4655895377363206E-5+1.477163065410336E-5i      -1.014777327423052E-6+2.7836314887071546E-8i      -3.298145253696049E-4+2.196387795066069E-6i
-0.01374749498997996      0                        0.0015                   -5.890300081069777E-5+1.4921349419505444E-5i      1.599238958155261E-6+2.481844644676892E-7i        -3.357099926989504E-4+2.1915087940334413E-6i
-0.013667334669338678     0                        0.0015                   -5.950929125261937E-5+1.5099603977817858E-5i      1.329347372954837E-6+2.0786826408865494E-7i       -3.3959676959292254E-4+2.0626962154471454E-6i
-0.013587174348697394     0                        0.0015                   -6.01155816945375E-5+1.5277858536130314E-5i       1.0594557877551718E-6+1.6755206370961726E-7i      -3.434835464868947E-4+1.93388363686089E-6i
-0.01350701402805611      0                        0.0015                   -6.072187213645693E-5+1.545611309444273E-5i       7.895642025539888E-7+1.2723586333058975E-7i       -3.473703233808664E-4+1.8050710582745942E-6i
-0.01342685370741483      0                        0.0015                   -6.132816257837636E-5+1.563436765275509E-5i       5.196726173529141E-7+8.691966295156224E-8i        -3.5125710027484247E-4+1.6762584796883932E-6i
-0.013346693386773547     0                        0.0015                   -6.193445302029449E-5+1.5812622211067477E-5i      2.4978103215314053E-7+4.6603462572514405E-8i      -3.551438771688146E-4+1.5474459011020973E-6i
-0.013266533066132263     0                        0.0015                   -6.254074346221435E-5+1.599087676937985E-5i       -2.0110553047500423E-8+6.287262193463178E-9i      -3.5903065406279024E-4+1.4186333225158962E-6i
-0.013186372745490981     0                        0.0015                   -6.314703390413075E-5+1.6169131327692225E-5i      -2.900021382487919E-7-3.402893818552706E-8i       -3.629174309567589E-4+1.2898207439295732E-6i
-0.0131062124248497       0                        0.0015                   -6.375332434605321E-5+1.6347385886004667E-5i      -5.598937234483486E-7-7.434513856458507E-8i       -3.668042078507337E-4+1.161008165343345E-6i
-0.013026052104208416     0                        0.0015                   -6.435961478797091E-5+1.6525640444317054E-5i      -8.297853086481222E-7-1.1466133894362952E-7i      -3.7069098474470626E-4+1.0321955867570763E-6i
-0.012945891783567134     0                        0.0015                   -6.147378153390079E-5+1.615036183857813E-5i       -1.7577299431495615E-6+2.982280924401342E-8i      -3.721848252287163E-4+4.93465070578101E-7i
-0.012865731462925852     0                        0.0015                   -6.149386405848419E-5+1.6413486161207476E-5i      -1.724539108516874E-6+1.7994382140797024E-8i      -3.7585766593069454E-4+3.9636182384248124E-7i
-0.012785571142284569     0                        0.0015                   -6.151394658307366E-5+1.6676610483836972E-5i      -1.6913482738836446E-6+6.165955037570463E-9i      -3.795305066326706E-4+2.9925857710669886E-7i
-0.012705410821643285     0                        0.0015                   -6.153402910766053E-5+1.6939734806466543E-5i      -1.6581574392512824E-6-5.662472065686591E-9i      -3.832033473346523E-4+2.0215533037114687E-7i
-0.012625250501002005     0                        0.0015                   -6.15541116322448E-5+1.720285912909595E-5i        -1.624966604618595E-6-1.7490899168875882E-8i      -3.868761880366305E-4+1.050520836354458E-7i
-0.012545090180360721     0                        0.0015                   -6.157419415683211E-5+1.7465983451725393E-5i      -1.5917757699857992E-6-2.9319326272153265E-8i     -3.9054902873860917E-4+7.94883689977184E-9i
-0.012464929859719438     0                        0.0015                   -6.159427668141551E-5+1.7729107774354876E-5i      -1.5585849353533287E-6-4.114775337533917E-8i      -3.9422186944058695E-4-8.915440983595633E-8i
-0.012384769539078156     0                        0.0015                   -6.161435920599935E-5+1.7992232096984203E-5i      -1.5253941007195028E-6-5.2976180478618245E-8i     -3.978947101425656E-4-1.8625765657160319E-7i
-0.012304609218436874     0                        0.0015                   -6.163444173058969E-5+1.8255356419613753E-5i      -1.4922032660865986E-6-6.480460758184142E-8i      -4.015675508445473E-4-2.8336090330716873E-7i
-0.01222444889779559      0                        0.0015                   -6.16545242551733E-5+1.851848074224323E-5i        -1.4590124314545075E-6-7.663303468506459E-8i      -4.052403915465229E-4-3.8046415004291045E-7i
-0.012144288577154308     0                        0.0015                   -6.1674606779763E-5+1.87816050648728E-5i          -1.425821596820519E-6-8.846146178829369E-8i       -4.089132322485016E-4-4.77567396778598E-7i
-0.012064128256513026     0                        0.0015                   -6.169468930434553E-5+1.9044729387502147E-5i      -1.3926307621887668E-6-1.0028988889154693E-7i     -4.1258607295048023E-4-5.746706435142448E-7i
-0.011983967935871743     0                        0.0015                   -6.171477182893262E-5+1.9307853710131647E-5i      -1.3594399275556E-6-1.1211831599476974E-7i        -4.1625891365245846E-4-6.717738902499188E-7i
-0.011903807615230461     0                        0.0015                   -6.173485435352014E-5+1.9570978032761157E-5i      -1.3262490929224433E-6-1.239467430980295E-7i      -4.199317543544393E-4-7.688771369854979E-7i
-0.011823647294589177     0                        0.0015                   -6.175493687810495E-5+1.9834102355390582E-5i      -1.2930582582897424E-6-1.3577517020123466E-7i     -4.236045950564175E-4-8.65980383721226E-7i
-0.011743486973947895     0                        0.0015                   -6.177501940269096E-5+2.0097226678020037E-5i      -1.2598674236574616E-6-1.4760359730445784E-7i     -4.272774357583957E-4-9.630836304569136E-7i
-0.011663326653306614     0                        0.0015                   -6.179510192727707E-5+2.0360351000649527E-5i      -1.2266765890235815E-6-1.5943202440769964E-7i     -4.3095027646037265E-4-1.0601868771925333E-6i
-0.01158316633266533      0                        0.0015                   -6.181518445186497E-5+2.062347532327904E-5i       -1.1934857543905689E-6-1.7126045151094823E-7i     -4.3462311716235217E-4-1.1572901239281937E-6i
-0.011503006012024048     0                        0.0015                   -6.183526697644692E-5+2.088659964590842E-5i       -1.1602949197578273E-6-1.8308887861421375E-7i     -4.382959578643343E-4-1.2543933706638E-6i
-0.011422845691382764     0                        0.0015                   -6.0572663974758694E-5+2.1107613871142043E-5i     9.947720697703506E-7-2.8924744472497155E-7i       -4.4343084707765615E-4-2.098001967568543E-6i
-0.011342685370741483     0                        0.0015                   -5.904461384056807E-5+2.1338229904479895E-5i      9.19812481517011E-7-2.5747967248138283E-7i        -4.5046472469258397E-4-2.3756527948668176E-6i
-0.0112625250501002       0                        0.0015                   -5.751656370638026E-5+2.1568845937817795E-5i      8.448528932641051E-7-2.257119002378551E-7i        -4.5749860230751525E-4-2.6533036221651463E-6i
-0.011182364729458917     0                        0.0015                   -5.598851357219246E-5+2.1799461971155705E-5i      7.698933050105487E-7-1.9394412799430703E-7i       -4.645324799224457E-4-2.930954449463448E-6i
-0.011102204408817635     0                        0.0015                   -5.446046343800465E-5+2.203007800449356E-5i       6.949337167569923E-7-1.621763557507522E-7i        -4.7156635753737436E-4-3.2086052767617496E-6i
-0.011022044088176352     0                        0.0015                   -5.2932413303814676E-5+2.226069403783141E-5i      6.199741285047369E-7-1.3040858350723801E-7i       -4.786002351523039E-4-3.4862561040601054E-6i
-0.01094188376753507      0                        0.0015                   -5.140436316962774E-5+2.249131007116937E-5i       5.450145402529152E-7-9.86408112637916E-8i         -4.8563411276724127E-4-3.7639069313582716E-6i
-0.010861723446893788     0                        0.0015                   -4.987631303543776E-5+2.2721926104507184E-5i      4.700549519993588E-7-6.687303902018255E-8i        -4.926679903821674E-4-4.0415577586566545E-6i
-0.010781563126252504     0                        0.0015                   -4.834826290125039E-5+2.2952542137845067E-5i      3.9509536374666976E-7-3.510526677664126E-8i       -4.997018679970952E-4-4.31920858595501E-6i
-0.010701402805611222     0                        0.0015                   -4.682021276706128E-5+2.3183158171182936E-5i      3.201357754939807E-7-3.337494533113528E-9i        -5.067357456120256E-4-4.596859413253312E-6i
-0.010621242484969939     0                        0.0015                   -4.529216263287478E-5+2.3413774204520847E-5i      2.451761872404243E-7+2.8430277710414205E-8i       -5.137696232269595E-4-4.874510240551532E-6i
-0.010541082164328657     0                        0.0015                   -4.3764112498683935E-5+2.3644390237858757E-5i     1.7021659898773522E-7+6.019804995392839E-8i       -5.208035008418873E-4-5.152161067849888E-6i
-0.010460921843687375     0                        0.0015                   -4.223606236449483E-5+2.387500627119653E-5i       9.525701073678089E-8+9.196582219752388E-8i        -5.278373784568169E-4-5.429811895148244E-6i
-0.010380761523046091     0                        0.0015                   -4.0708012230307455E-5+2.4105622304534388E-5i     2.029742248322447E-8+1.2373359444106517E-7i       -5.348712560717464E-4-5.707462722446546E-6i
-0.01030060120240481      0                        0.0015                   -3.917996209611835E-5+2.433623833787238E-5i       -5.466216576946459E-8+1.5550136668460645E-7i      -5.419051336866777E-4-5.9851135497448744E-6i
-0.010220440881763526     0                        0.0015                   -3.7651911961930976E-5+2.4566854371210235E-5i     -1.29621754023021E-7+1.8726913892814774E-7i       -5.489390113016064E-4-6.26276437704323E-6i
-0.010140280561122244     0                        0.0015                   -3.276357416245185E-5+2.4427537082622627E-5i      -3.998116514817608E-6-6.412747160510781E-8i       -5.493538240783293E-4-7.043716928805608E-6i
-0.010060120240480962     0                        0.0015                   -2.866819251161161E-5+2.475744925216785E-5i       -3.5018563741698663E-6-6.267286563612045E-8i      -5.501480282722312E-4-7.32217053452458E-6i
-0.009979959919839678     0                        0.0015                   -2.4572810860776576E-5+2.5087361421713045E-5i     -3.0055962335221245E-6-6.12182596671331E-8i       -5.509422324661332E-4-7.600624140243525E-6i
-0.009899799599198397     0                        0.0015                   -2.0477429209936338E-5+2.5417273591258268E-5i     -2.5093360928730817E-6-5.976365369806443E-8i      -5.517364366600351E-4-7.879077745962443E-6i
-0.009819639278557113     0                        0.0015                   -1.6382047559100436E-5+2.5747185760803518E-5i     -2.013075952224906E-6-5.830904772898221E-8i       -5.52530640853937E-4-8.157531351681455E-6i
-0.009739478957915831     0                        0.0015                   -1.2286665908259331E-5+2.6077097930348673E-5i     -1.5168158115780317E-6-5.685444175994065E-8i      -5.533248450478399E-4-8.435984957400373E-6i
-0.00965931863727455      0                        0.0015                   -8.191284257426032E-6+2.6407010099894018E-5i      -1.0205556709311572E-6-5.539983579089231E-8i      -5.541190492417427E-4-8.714438563119317E-6i
-0.009579158316633266     0                        0.0015                   -4.095902606584927E-6+2.6736922269439187E-5i      -5.24295530281247E-7-5.3945229821938836E-8i       -5.549132534356439E-4-8.992892168838286E-6i
-0.009498997995991984     0                        0.0015                   -5.209557524948893E-10+2.7066834438984477E-5i     -2.8035389633722027E-8-5.249062385294471E-8i      -5.557074576295479E-4-9.271345774557202E-6i
-0.0094188376753507       0                        0.0015                   4.094860695082539E-6+2.739674660852978E-5i        4.682247510135861E-7-5.103601788388959E-8i        -5.565016618234492E-4-9.549799380276162E-6i