% Model:              FEA.mph
% Version:            COMSOL 6.0.0.318
% Date:               Jul 28 2022, 16:03
% Dimension:          3
% Nodes:              500
% Expressions:        3
% Description:        Magnetic flux density, x component, Magnetic flux density, y component, Magnetic flux density, z component
% Length unit:        m
% x                       y                        z                        mf.Bx (T) @ freq=500, Material Switch 1=Stainless Steel mf.By (T) @ freq=500, Material Switch 1=Stainless Steel mf.Bz (T) @ freq=500, Material Switch 1=Stainless Steel
-0.018000000000000002     0                        0.0015                   2.065819692209425E-5+1.8266106182548838E-6i       2.0219101293960555E-7+2.078496172441037E-8i       -1.0233037593698885E-4+2.0489089628256984E-6i
-0.017927855711422847     0                        0.0015                   2.1204228855727997E-5+1.8808178862270749E-6i      1.5622727678836208E-7+1.8520374885021015E-8i      -1.033356430107494E-4+2.0507450748851434E-6i
-0.017855711422845692     0                        0.0015                   2.1750260789362206E-5+1.9350251541992104E-6i      1.1026354063672558E-7+1.625578804565241E-8i       -1.0434091008451045E-4+2.052581186944603E-6i
-0.01778356713426854      0                        0.0015                   2.220277124018357E-5+1.9717597155867236E-6i       -1.8395604792470054E-7-2.5068634482102692E-8i     -1.0530067907415006E-4+2.0714366729467607E-6i
-0.017711422845691386     0                        0.0015                   2.2927094053761205E-5+2.026419634022306E-6i       -1.4954542052496902E-7-2.473937840366905E-8i      -1.0656039307450222E-4+2.0510277483135028E-6i
-0.01763927855711423      0                        0.0015                   2.3651416867338142E-5+2.0810795524578685E-6i      -1.1513479312516973E-7-2.441012232523504E-8i      -1.0782010707485623E-4+2.0306188236802673E-6i
-0.017567134268537076     0                        0.0015                   2.437573968091394E-5+2.1357394708934935E-6i       -8.07241657257567E-8-2.408086624680185E-8i        -1.0907982107521142E-4+2.0102098990470428E-6i
-0.01749498997995992      0                        0.0015                   2.5100062494490608E-5+2.190399389329061E-6i       -4.631353832631655E-8-2.3751610168359764E-8i      -1.1033953507556577E-4+1.989800974413786E-6i
-0.017422845691382766     0                        0.0015                   2.5824385308067816E-5+2.245059307764642E-6i       -1.1902910926673118E-8-2.3422354089921914E-8i     -1.1159924907592086E-4+1.9693920497805506E-6i
-0.017350701402805615     0                        0.0015                   2.6548708121644808E-5+2.2997192262002126E-6i      2.250771647256374E-8-2.309309801147729E-8i        -1.1285896307627465E-4+1.948983125147305E-6i
-0.01727855711422846      0                        0.0015                   2.7273030935220715E-5+2.354379144635831E-6i       5.691834387231559E-8-2.2763841933040286E-8i       -1.1411867707662881E-4+1.928574200514068E-6i
-0.017206412825651305     0                        0.0015                   2.7997353748799442E-5+2.409039063071405E-6i       9.132897127212165E-8-2.2434585854611753E-8i       -1.1537839107698323E-4+1.908165275880829E-6i
-0.01713426853707415      0                        0.0015                   2.8721676562374916E-5+2.463698981507006E-6i       1.2573959867165667E-7-2.2105329776170516E-8i      -1.1663810507733696E-4+1.8877563512475768E-6i
-0.017062124248496995     0                        0.0015                   2.962037809260817E-5+2.474931921931826E-6i        1.4260563730903418E-7+7.222090843909929E-10i      -1.1791148531193471E-4+1.8741474848895725E-6i
-0.01698997995991984      0                        0.0015                   3.0259150508102003E-5+2.516215791488595E-6i       1.3696790704159807E-7+9.487975837515447E-10i      -1.1916954694642913E-4+1.8557126361093462E-6i
-0.01691783567134269      0                        0.0015                   3.08979229235928E-5+2.5574996610454586E-6i        1.313301767743788E-7+1.1753860831087084E-9i       -1.2042760858092604E-4+1.8372777873291716E-6i
-0.016845691382765534     0                        0.0015                   3.153669533908533E-5+2.5987835306022885E-6i       1.2569244650650901E-7+1.4019745824709543E-9i      -1.2168567021542261E-4+1.8188429385489823E-6i
-0.01677354709418838      0                        0.0015                   3.217546775457526E-5+2.6400674001591455E-6i       1.200547162390729E-7+1.6285630818298121E-9i       -1.2294373184991848E-4+1.8004080897687914E-6i
-0.016701402805611224     0                        0.0015                   3.281424017007083E-5+2.6813512697159076E-6i       1.144169859716368E-7+1.8551515811869758E-9i       -1.2420179348441294E-4+1.7819732409885785E-6i
-0.01662925851703407      0                        0.0015                   3.345301258556206E-5+2.722635139272785E-6i        1.0877925570403806E-7+2.0817400805492217E-9i      -1.2545985511891065E-4+1.763538392208396E-6i
-0.016557114228456914     0                        0.0015                   3.409178500105416E-5+2.7639190088295674E-6i       1.0314152543676458E-7+2.3083285799114676E-9i      -1.267179167534064E-4+1.7451035434282034E-6i
-0.016484969939879763     0                        0.0015                   3.473055741654626E-5+2.8052028783864244E-6i       9.750379516911163E-8+2.5349170792737135E-9i       -1.2797597838790434E-4+1.726668694648031E-6i
-0.016412825651302608     0                        0.0015                   3.536932983203966E-5+2.846486747943207E-6i        9.186606490189236E-8+2.761505578624101E-9i        -1.292340400223988E-4+1.7082338458678317E-6i
-0.016340681362725453     0                        0.0015                   3.600810224753219E-5+2.8877706175000774E-6i       8.622833463440205E-8+2.988094077988888E-9i        -1.3049210165689672E-4+1.6897989970876255E-6i
-0.016268537074148298     0                        0.0015                   3.6646874663026456E-5+2.9290544870568666E-6i      8.059060436707436E-8+3.2146825773452046E-9i       -1.3175016329139075E-4+1.671364148307433E-6i
-0.016196392785571143     0                        0.0015                   3.728564707851725E-5+2.9703383566136694E-6i       7.495287409931299E-8+3.4412710767023683E-9i       -1.330082249258865E-4+1.6529292995272132E-6i
-0.01612424849699399      0                        0.0015                   3.7924419494008484E-5+3.011622226170533E-6i       6.931514383182267E-8+3.6678595760671553E-9i       -1.342662865603814E-4+1.6344944507470206E-6i
-0.016052104208416837     0                        0.0015                   3.856319190949928E-5+3.05290609572739E-6i         6.367741356438656E-8+3.894448075428554E-9i        -1.3552434819488063E-4+1.616059601966855E-6i
-0.015979959919839682     0                        0.0015                   4.053755981883278E-5+3.1175619986714693E-6i       -4.960987937336139E-8+1.547761615349784E-10i      -1.3899981770674176E-4+1.553199715606576E-6i
-0.015907815631262527     0                        0.0015                   4.143940809525637E-5+3.1575752400880398E-6i       -8.201373403372999E-8+8.24994525090852E-11i       -1.4078692471922822E-4+1.5277912324812343E-6i
-0.015835671342685372     0                        0.0015                   4.2341256371677136E-5+3.1975884815045544E-6i      -1.1441758869464068E-7+1.0222743474298156E-11i    -1.425740317317178E-4+1.502382749355978E-6i
-0.015763527054108217     0                        0.0015                   4.324310464810452E-5+3.237601722921086E-6i        -1.468214433550906E-7-6.205396556726515E-11i      -1.443611387442052E-4+1.476974266230675E-6i
-0.015691382765531066     0                        0.0015                   4.4144952924524096E-5+3.2776149643376344E-6i      -1.7922529801651628E-7-1.3433067458638208E-10i    -1.4614824575669155E-4+1.4515657831053572E-6i
-0.01561923847695391      0                        0.0015                   4.578185414489766E-5+3.316267360822546E-6i        1.1161265497792354E-8-2.58546509377278E-9i        -1.479561699287643E-4+1.4029867007291628E-6i
-0.015547094188376756     0                        0.0015                   4.67235844342288E-5+3.3545084090077225E-6i        -1.818151272223699E-8-2.4522327140986657E-9i      -1.4996891781005221E-4+1.3771577204421356E-6i
-0.015474949899799601     0                        0.0015                   4.879046567810453E-5+3.4182837120048172E-6i       -5.261200268947153E-7-1.3187667784159791E-8i      -1.513533196605673E-4+1.3644589952113204E-6i
-0.015402805611222446     0                        0.0015                   5.01236251059271E-5+3.4560417512990077E-6i        -4.856408687188172E-7-9.961448761175811E-9i       -1.5322196380798502E-4+1.3359249375164037E-6i
-0.015330661322645293     0                        0.0015                   5.1456784533744464E-5+3.4937997905932388E-6i      -4.451617105415232E-7-6.735229738233548E-9i       -1.5509060795540068E-4+1.3073908798214458E-6i
-0.015258517034068138     0                        0.0015                   5.2789943961563564E-5+3.531557829887402E-6i       -4.046825523643105E-7-3.509010715267144E-9i       -1.5695925210281825E-4+1.2788568221265095E-6i
-0.015186372745490985     0                        0.0015                   5.41231033893844E-5+3.5693158691815655E-6i        -3.642033941885208E-7-2.8279169229841056E-10i     -1.5882789625023934E-4+1.2503227644316316E-6i
-0.01511422845691383      0                        0.0015                   5.545626281720263E-5+3.6070739084757966E-6i       -3.2372423601229744E-7+2.9434273306669346E-9i     -1.6069654039765425E-4+1.2217887067366538E-6i
-0.015042084168336675     0                        0.0015                   5.67894222450226E-5+3.644831947769987E-6i         -2.832450778367246E-7+6.169646353639056E-9i       -1.6256518454507121E-4+1.1932546490417183E-6i
-0.01496993987975952      0                        0.0015                   5.897728959526616E-5+3.673089389494508E-6i        1.3501748071355693E-7+1.6068643948999209E-9i      -1.6423986202728912E-4+1.1617971853070917E-6i
-0.014897795591182367     0                        0.0015                   6.0538869991967744E-5+3.712994596162883E-6i       1.6750254990742335E-7+1.932089242567974E-9i       -1.6607693847843123E-4+1.1326712797883275E-6i
-0.014825651302605212     0                        0.0015                   6.210045038866152E-5+3.752899802831407E-6i        1.9998761910166923E-7+2.2573140902258627E-9i      -1.679140149295719E-4+1.1035453742695188E-6i
-0.014753507014028059     0                        0.0015                   6.366203078536159E-5+3.792805009499809E-6i        2.3247268829591512E-7+2.5825389378939157E-9i      -1.697510913807162E-4+1.0744194687507977E-6i
-0.014681362725450904     0                        0.0015                   6.522361118205743E-5+3.832710216168277E-6i        2.6495775749138073E-7+2.9077637855306286E-9i      -1.7158816783185925E-4+1.0452935632319981E-6i
-0.01460921843687375      0                        0.0015                   6.678519157875615E-5+3.872615422836693E-6i        2.974428266852607E-7+3.2329886331955053E-9i       -1.734252442829986E-4+1.0161676577132047E-6i
-0.014537074148296594     0                        0.0015                   6.706641850960762E-5+3.9084539055787496E-6i       -4.315863508523083E-8-1.3051134984824573E-8i      -1.7889216935622966E-4+9.683376050217277E-7i
-0.014464929859719441     0                        0.0015                   6.758471613045957E-5+3.948138825016158E-6i        -1.4932040265022164E-6-2.3753747222816805E-8i     -1.787701334380091E-4+9.352515332845061E-7i
-0.014392785571142286     0                        0.0015                   6.982133992826161E-5+3.989438298331369E-6i        -1.3480487717425324E-6-1.9924404808992297E-8i     -1.8113683634960584E-4+9.028732285746684E-7i
-0.014320641282565133     0                        0.0015                   7.205796372606108E-5+4.030737771646579E-6i        -1.2028935169830111E-6-1.6095062395174565E-8i     -1.835035392612032E-4+8.704949238648239E-7i
-0.014248496993987978     0                        0.0015                   7.429458752386143E-5+4.07203724496182E-6i         -1.0577382622228393E-6-1.2265719981361916E-8i     -1.8587024217280146E-4+8.381166191549303E-7i
-0.014176352705410823     0                        0.0015                   7.436096119952437E-5+4.098877851154426E-6i        1.3692746284738044E-6+4.77203872713283E-9i        -1.8685487227070296E-4+8.112756790685078E-7i
-0.014104208416833668     0                        0.0015                   7.68130513798277E-5+4.140834181866809E-6i         1.2177416510768951E-6+4.543750316577939E-9i       -1.896069207872336E-4+7.782949937500644E-7i
-0.014032064128256515     0                        0.0015                   7.926514156012757E-5+4.182790512579165E-6i        1.0662086736834553E-6+4.315461906023049E-9i       -1.9235896930376085E-4+7.45314308431521E-7i
-0.01395991983967936      0                        0.0015                   8.171723174043004E-5+4.224746843291521E-6i        9.14675696286546E-7+4.087173495481711E-9i         -1.951110178202857E-4+7.123336231129964E-7i
-0.013887775551102207     0                        0.0015                   8.416932192072818E-5+4.266703174003863E-6i        7.631427188896367E-7+3.858885084940373E-9i        -1.9786306633681793E-4+6.793529377945377E-7i
-0.013815631262525052     0                        0.0015                   8.662141210103152E-5+4.308659504716185E-6i        6.116097414940284E-7+3.6305966743719296E-9i       -2.0061511485334723E-4+6.463722524760672E-7i
-0.013743486973947897     0                        0.0015                   8.907350228133009E-5+4.3506158354285685E-6i       4.600767640984202E-7+3.402308263837368E-9i        -2.0336716336987587E-4+6.133915671575595E-7i
-0.013671342685370742     0                        0.0015                   9.152559246163212E-5+4.392572166140918E-6i        3.0854378670281193E-7+3.1740198532892536E-9i      -2.0611921188640496E-4+5.804108818390721E-7i
-0.01359919839679359      0                        0.0015                   9.397768264193156E-5+4.434528496853267E-6i        1.5701080930677E-7+2.945731442734363E-9i          -2.0887126040293274E-4+5.474301965205677E-7i
-0.013527054108216436     0                        0.0015                   9.64297728222336E-5+4.476484827565582E-6i         5.477831910294384E-9+2.7174430321998014E-9i       -2.1162330891946182E-4+5.144495112020735E-7i
-0.013454909819639281     0                        0.0015                   9.888186300253553E-5+4.5184411582779245E-6i       -1.460551454844465E-7+2.4891546216415227E-9i      -2.1437535743599155E-4+4.814688258835827E-7i
-0.013382765531062126     0                        0.0015                   1.0133395318283583E-4+4.560397488990272E-6i       -2.975881228820063E-7+2.2608662110917144E-9i      -2.1712740595252128E-4+4.4848814056507833E-7i
-0.013310621242484971     0                        0.0015                   1.0378604336313543E-4+4.602353819702651E-6i       -4.4912110027685564E-7+2.0325778005605407E-9i     -2.1987945446905015E-4+4.1550745524660107E-7i
-0.013238476953907816     0                        0.0015                   1.0519636370833342E-4+4.633628737346598E-6i       -1.0232818298490295E-6-6.739624860135732E-10i     -2.2626642999836735E-4+3.449599487194004E-7i
-0.013166332665330663     0                        0.0015                   1.0865551578486906E-4+4.68275327216974E-6i        -1.0673228594428974E-6-3.8131607936996837E-10i    -2.2836553065453606E-4+3.043247392903077E-7i
-0.01309418837675351      0                        0.0015                   1.1211466786140416E-4+4.73187780699287E-6i        -1.111363889034502E-6-8.866967273271631E-11i      -2.3046463131070572E-4+2.636895298612044E-7i
-0.013022044088176355     0                        0.0015                   1.1557381993793992E-4+4.78100234181602E-6i        -1.1554049186278956E-6+2.0397673390368872E-10i    -2.3256373196687326E-4+2.230543204321087E-7i
-0.0129498997995992       0                        0.0015                   1.1704865364490615E-4+4.815159483988875E-6i       9.391686034840785E-7+8.285645972765573E-9i        -2.3053765519839983E-4+2.1366245796290688E-7i
-0.012877755511022045     0                        0.0015                   1.208453584502308E-4+4.860754040080493E-6i        7.314044064600511E-7+6.665473280291549E-9i        -2.3468335271080833E-4+1.698228478789568E-7i
-0.012805611222444892     0                        0.0015                   1.2464206325555607E-4+4.906348596172098E-6i       5.236402094367827E-7+5.045300587797196E-9i        -2.3882905022322085E-4+1.2598323779505838E-7i
-0.012733466933867737     0                        0.0015                   1.2843876806087988E-4+4.9519431522637405E-6i      3.15876012413948E-7+3.4251278953214783E-9i        -2.4297474773563108E-4+8.21436277111227E-8i
-0.012661322645290584     0                        0.0015                   1.3223547286620295E-4+4.997537708355372E-6i       1.0811181539046276E-7+1.8049552028322077E-9i      -2.4712044524804566E-4+3.830401762723783E-8i
-0.012589178356713429     0                        0.0015                   1.3603217767152966E-4+5.043132264446974E-6i       -9.965238163237196E-8+1.8478251034801936E-10i     -2.512661427604557E-4-5.535592456684305E-9i
-0.012517034068136274     0                        0.0015                   1.3982888247685173E-4+5.0887268205386185E-6i      -3.0741657865601983E-7-1.435390182135322E-9i      -2.5541184027286744E-4-4.937520254059966E-8i
-0.01244488977955912      0                        0.0015                   1.4362558728217665E-4+5.134321376630245E-6i       -5.151807756793966E-7-3.0555628746203574E-9i      -2.59557537785278E-4-9.321481262453027E-8i
-0.012372745490981966     0                        0.0015                   1.4742229208749978E-4+5.179915932721872E-6i       -7.229449727020145E-7-4.6757355670952285E-9i      -2.63703235297689E-4-1.3705442270845664E-7i
-0.012300601202404811     0                        0.0015                   1.5121899689282643E-4+5.225510488813463E-6i       -9.307091697253913E-7-6.295908259581111E-9i       -2.678489328101014E-4-1.808940327923576E-7i
-0.012228456913827658     0                        0.0015                   1.5501570169814695E-4+5.27110504490513E-6i        -1.1384733667482803E-6-7.916080952072923E-9i      -2.7199463032251533E-4-2.247336428762467E-7i
-0.012156312625250503     0                        0.0015                   1.5881240650347442E-4+5.31669960099673E-6i        -1.3462375637722534E-6-9.536253644539323E-9i      -2.761403278349288E-4-2.685732529601578E-7i
-0.012084168336673348     0                        0.0015                   1.6260911130879907E-4+5.362294157088333E-6i       -1.5540017607952508E-6-1.1156426337033676E-8i     -2.802860253473395E-4-3.1241286304407063E-7i
-0.012012024048096193     0                        0.0015                   1.6640581611412176E-4+5.40788871317998E-6i        -1.7617659578192239E-6-1.2776599029504735E-8i     -2.8443172285974616E-4-3.5625247312800717E-7i
-0.01193987975951904      0                        0.0015                   1.7911187926463118E-4+5.488213732970181E-6i       4.837173799834057E-6+1.825911141065757E-8i        -2.888337989815316E-4-4.304277289232379E-7i
-0.011867735470941885     0                        0.0015                   1.8350651715222615E-4+5.537397450812921E-6i       5.364662599696571E-6+2.4259246996377242E-8i       -2.926542054502439E-4-4.779824168377834E-7i
-0.011795591182364732     0                        0.0015                   1.879011550398247E-4+5.586581168655615E-6i        5.892151399558435E-6+3.025938258209183E-8i        -2.9647461191895596E-4-5.255371047523527E-7i
-0.011723446893787577     0                        0.0015                   1.922957929274201E-4+5.6357648864983605E-6i       6.419640199421166E-6+3.6259518167861476E-8i       -3.0029501838766564E-4-5.730917926669422E-7i
-0.011651302605210422     0                        0.0015                   1.960579368414634E-4+5.6540013470778266E-6i       2.2011958098189493E-6-5.2918910473455144E-8i      -3.0588503910581374E-4-7.010838289588897E-7i
-0.011579158316633267     0                        0.0015                   2.0211552206796113E-4+5.71735701535822E-6i        2.872154742076258E-6-4.40995602407973E-8i         -3.077986571498525E-4-7.54574327533746E-7i
-0.011507014028056114     0                        0.0015                   2.0817310729445292E-4+5.780712683638608E-6i       3.5431136743297722E-6-3.528021000818605E-8i       -3.097122751938939E-4-8.080648261085617E-7i
-0.011434869739478961     0                        0.0015                   2.1200190196693437E-4+5.829333429594017E-6i       -4.042476697463837E-6-3.4333476926916333E-8i      -3.2055638018271094E-4-8.617446820778197E-7i
-0.011362725450901806     0                        0.0015                   2.1894214786059287E-4+5.88935316565894E-6i        -3.34785018442279E-6-2.8352312725375347E-8i       -3.2325495206648764E-4-9.180200861589158E-7i
-0.011290581162324651     0                        0.0015                   2.2544964373860058E-4+5.912288580915141E-6i       6.2027954782478E-8+3.644880595412596E-8i          -3.336281714212243E-4-8.9167888587551E-7i
-0.011218436873747496     0                        0.0015                   2.3413606412737813E-4+5.969440475453688E-6i       -3.505417170990028E-7+3.200610925034599E-8i       -3.3837798377941986E-4-9.631387879012265E-7i
-0.011146292585170341     0                        0.0015                   2.428224845161508E-4+6.026592369992304E-6i        -7.631113889804836E-7+2.756341254662107E-8i       -3.431277961375963E-4-1.0345986899270378E-6i
-0.011074148296593188     0                        0.0015                   2.515089049049241E-4+6.083744264530932E-6i        -1.175681060858278E-6+2.3120715842815263E-8i      -3.478776084957754E-4-1.1060585919527576E-6i
-0.011002004008016035     0                        0.0015                   2.601953252936946E-4+6.140896159069542E-6i        -1.5882507327417104E-6+1.8678019139034866E-8i     -3.526274208539579E-4-1.1775184939784893E-6i
-0.01092985971943888      0                        0.0015                   2.511340538210124E-4+6.1978084850388775E-6i       -2.280796517900585E-7+2.4955561210418043E-9i      -3.433426091160813E-4-1.2453337594555376E-6i
-0.010857715430861725     0                        0.0015                   2.610303590312047E-4+6.249596037409848E-6i        -4.640817147776727E-7+1.3073305670068252E-9i      -3.516701905105235E-4-1.3111205439144853E-6i
-0.01078557114228457      0                        0.0015                   2.709266642414018E-4+6.301383589780693E-6i        -7.000837777676721E-7+1.1910501297692823E-10i     -3.599977719049626E-4-1.3769073283734465E-6i
-0.010713426853707415     0                        0.0015                   2.808229694515941E-4+6.3531711421516165E-6i       -9.360858407555031E-7-1.0691205410631331E-9i      -3.683253532994037E-4-1.4426941128324314E-6i
-0.010641282565130262     0                        0.0015                   2.90719274661786E-4+6.40495869452254E-6i          -1.1720879037438762E-6-2.2573460951065826E-9i     -3.766529346938452E-4-1.5084808972913655E-6i
-0.010569138276553109     0                        0.0015                   3.0061557987198155E-4+6.456746246893365E-6i       -1.4080899667333335E-6-3.4455716491178448E-9i     -3.8498051608828673E-4-1.5742676817503266E-6i
-0.010496993987975954     0                        0.0015                   3.1051188508217386E-4+6.508533799264281E-6i       -1.644092029721815E-6-4.633797203169765E-9i       -3.9330809748272955E-4-1.640054466209298E-6i
-0.0104248496993988       0                        0.0015                   3.2040819029236596E-4+6.560321351635206E-6i       -1.880094092708833E-6-5.822022757203897E-9i       -4.0163567887716673E-4-1.7058412506682727E-6i
-0.010352705410821644     0                        0.0015                   3.303044955025585E-4+6.612108904006141E-6i        -2.1160961556983715E-6-7.0102483112312525E-9i     -4.099632602716091E-4-1.7716280351272187E-6i
-0.010280561122244491     0                        0.0015                   3.3428739025701155E-4+6.661693550165618E-6i       -1.4348866568584216E-6-5.632549860371824E-9i      -4.1308968642465036E-4-1.8492850801319613E-6i
-0.010208416833667336     0                        0.0015                   3.4480840233185126E-4+6.709967389269683E-6i       -1.7834707225542444E-6-7.056402621260057E-9i      -4.218242058725702E-4-1.9132001987120936E-6i
-0.010136272545090181     0                        0.0015                   3.5532941440669357E-4+6.758241228373782E-6i       -2.132054788246164E-6-8.480255382158455E-9i       -4.3055872532049436E-4-1.977115317292165E-6i
-0.010064128256513028     0                        0.0015                   3.658504264815311E-4+6.806515067477963E-6i        -2.480638853941553E-6-9.904108143046688E-9i       -4.392932447684194E-4-2.041030435872243E-6i
-0.009991983967935873     0                        0.0015                   3.921098927481253E-4+6.865773742468079E-6i        3.529035160096741E-5+5.135137029325513E-8i        -4.2173066603797774E-4-2.0821050687550995E-6i
-0.009919839679358718     0                        0.0015                   4.070322162107354E-4+6.912250874580632E-6i        3.093136728921119E-5+4.2951095833928076E-8i       -4.3368116330810315E-4-2.1740458337714873E-6i
-0.009847695390781565     0                        0.0015                   4.21954539673352E-4+6.958728006693124E-6i         2.6572382977456703E-5+3.45508213746078E-8i        -4.456316605782242E-4-2.265986598787855E-6i
-0.00977555110220441      0                        0.0015                   4.046346500951709E-4+6.933992826712962E-6i        8.336627483812153E-6+2.1163535828229104E-9i       -4.6238200282963963E-4-2.37898388440179E-6i
-0.009703406813627257     0                        0.0015                   4.2289579575419773E-4+6.995077126843093E-6i       6.74419517887972E-6+7.284500390231482E-10i        -4.6944769030525394E-4-2.466133560862531E-6i
-0.009631262525050102     0                        0.0015                   4.411569414132237E-4+7.056161426973183E-6i        5.151762873945335E-6-6.594535047698379E-10i       -4.7651337778086304E-4-2.553283237323292E-6i
-0.009559118236472947     0                        0.0015                   4.5941808707224965E-4+7.117245727103273E-6i       3.5593305690124685E-6-2.0473570485696E-9i         -4.835790652564778E-4-2.6404329137840328E-6i
-0.009486973947895794     0                        0.0015                   4.7767923273127214E-4+7.178330027233428E-6i       1.9668982640798187E-6-3.4352605923710565E-9i      -4.90644752732093E-4-2.72758259024476E-6i
-0.00941482965931864      0                        0.0015                   4.959403783903016E-4+7.239414327363474E-6i        3.7446595914673517E-7-4.823164136169125E-9i       -4.97710440207702E-4-2.8147322667055686E-6i
-0.009342685370741484     0                        0.0015                   5.142015240493258E-4+7.3004986274935915E-6i       -1.217966345786782E-6-6.211067679965499E-9i       -5.047761276833129E-4-2.901881943166323E-6i
-0.009270541082164331     0                        0.0015                   5.324626697083461E-4+7.361582927623722E-6i        -2.8103986507200824E-6-7.598971223761873E-9i      -5.118418151589246E-4-2.989031619627084E-6i
-0.009198396793587176     0                        0.0015                   5.507238153673734E-4+7.422667227753819E-6i        -4.402830955653383E-6-8.986874767561635E-9i       -5.18907502634538E-4-3.076181296087845E-6i
-0.009126252505010021     0                        0.0015                   5.689849610264024E-4+7.483751527883891E-6i        -5.995263260585599E-6-1.0374778311359704E-8i      -5.259731901101506E-4-3.163330972548586E-6i
-0.009054108216432868     0                        0.0015                   5.872461066854253E-4+7.544835828014025E-6i        -7.587695565519333E-6-1.1762681855159466E-8i      -5.330388775857658E-4-3.25048064900932E-6i
-0.008981963927855713     0                        0.0015                   6.055072523444491E-4+7.6059201281441325E-6i       -9.1801278704522E-6-1.315058539895584E-8i         -5.401045650613783E-4-3.3376303254700743E-6i
-0.008909819639278558     0                        0.0015                   6.237683980034748E-4+7.667004428274257E-6i        -1.0772560175385283E-5-1.4538488942755602E-8i     -5.471702525369935E-4-3.4247800019307948E-6i
-0.008837675350701405     0                        0.0015                   6.551450789144877E-4+7.645746389077453E-6i        6.436761184245264E-6-8.955932836402915E-8i        -5.808127483042311E-4-3.519153544261227E-6i
-0.00876553106212425      0                        0.0015                   6.794188644602783E-4+7.711460541235892E-6i        6.699793876986486E-6-7.49189977333841E-8i         -5.825919076971071E-4-3.6407525010885534E-6i
-0.008693386773547095     0                        0.0015                   7.036926500060666E-4+7.777174693394348E-6i        6.962826569727708E-6-6.027866710271872E-8i        -5.843710670899761E-4-3.762351457915934E-6i
-0.008621242484969942     0                        0.0015                   7.279664355518552E-4+7.842888845552804E-6i        7.225859262468062E-6-4.563833647205673E-8i        -5.861502264828452E-4-3.883950414743342E-6i
-0.008549098196392787     0                        0.0015                   7.522402210976451E-4+7.908602997711224E-6i        7.488891955208634E-6-3.0998005841393894E-8i       -5.87929385875716E-4-4.005549371570669E-6i
-0.008476953907815632     0                        0.0015                   7.765140066434333E-4+7.974317149869679E-6i        7.751924647949097E-6-1.635767521072682E-8i        -5.897085452685911E-4-4.127148328397995E-6i