% Model:              FEA.mph
% Version:            COMSOL 6.0.0.318
% Date:               Jul 31 2022, 09:22
% Dimension:          3
% Nodes:              500
% Expressions:        6
% Description:        Magnetic flux density, x component, Magnetic flux density, y component, Magnetic flux density, z component
% Length unit:        m
% x                       y                        z                        mf.Bx (T) @ freq=500, Material Switch 1=Stainless Steel mf.By (T) @ freq=500, Material Switch 1=Stainless Steel mf.Bz (T) @ freq=500, Material Switch 1=Stainless Steel mf.Bx (T) @ freq=500, Material Switch 1=Air       mf.By (T) @ freq=500, Material Switch 1=Air       mf.Bz (T) @ freq=500, Material Switch 1=Air
-0.02                     0                        0.0015                   2.607205208900957E-5+3.0587220136133833E-6i       -9.722054656885611E-7+5.794500922255877E-8i       -1.5899376758671474E-4+5.993571613830239E-6i      1.0251058099467858E-5-4.321073755046546E-11i      7.337609152371178E-8-3.148336539777955E-13i       -7.851324411765773E-5+3.38387057825598E-10i
-0.019919839679358717     0                        0.0015                   2.4614341170229768E-5+3.1988779957319846E-6i      -3.7417319424744343E-7+3.149704600739387E-8i      -1.6199903780927754E-4+6.078440622432128E-6i      1.0548861327605303E-5-4.448186411965961E-11i      8.066952854302555E-8-3.4689507358270604E-13i      -7.930342247228705E-5+3.4165185515577594E-10i
-0.019839679358717437     0                        0.0015                   2.315663025144891E-5+3.3390339778506282E-6i       2.2385907719516505E-7+5.049082792203566E-9i       -1.650043080318425E-4+6.163309631034152E-6i       1.0846664555742478E-5-4.5752990688851565E-11i     8.796296556315246E-8-3.789564931912355E-13i       -8.009360082691724E-5+3.449166524859526E-10i
-0.019759519038076153     0                        0.0015                   2.1698919332667997E-5+3.4791899599693193E-6i      8.218913486363099E-7-2.1398880422959636E-8i       -1.6800957825440746E-4+6.248178639636109E-6i      1.114446778387911E-5-4.702411725804295E-11i       9.525640258192412E-8-4.1101791279790377E-13i      -8.08837791815484E-5+3.481814498161326E-10i
-0.01967935871743487      0                        0.0015                   2.024120841388668E-5+3.6193459420879714E-6i       1.4199236200787557E-6-4.784684363815672E-8i       -1.7101484847697394E-4+6.333047648238133E-6i      1.144227101201661E-5-4.829524382723299E-11i       1.0254983960253893E-7-4.430793324070536E-13i      -8.167395753617957E-5+3.514462471463126E-10i
-0.01959919839679359      0                        0.0015                   1.8783497495106986E-5+3.7595019242065727E-6i      2.017955891520226E-6-7.429480685336735E-8i        -1.7402011869953674E-4+6.417916656840022E-6i      1.1740074240154273E-5-4.9566370396432126E-11i     1.0984327662212374E-7-4.751407520102064E-13i      -8.24641358908103E-5+3.54711044476486E-10i
-0.019519038076152306     0                        0.0015                   1.8547005946176654E-5+3.774449615724922E-6i       -5.812119335129023E-6+2.398308956144061E-7i       -1.7696872143689764E-4+6.3837618128797095E-6i     1.1685322178006706E-5-4.930801936592013E-11i      -2.3215788200691388E-7+1.0207691139406507E-12i    -8.40356429655161E-5+3.6131448910251587E-10i
-0.019438877755511022     0                        0.0015                   1.612141432334811E-5+4.013080579108758E-6i        -5.762496535232937E-6+2.1421355810927471E-7i      -1.7676937441439794E-4+6.322311597627032E-6i      1.2197100588138925E-5-5.150080044124701E-11i      -2.540360502225822E-7+1.1139183274903266E-12i     -8.48673821032525E-5+3.6472774743412167E-10i
-0.01935871743486974      0                        0.0015                   1.369582270051631E-5+4.25171154249275E-6i         -5.712873735338152E-6+1.8859622060414332E-7i      -1.7657002739189553E-4+6.26086138237424E-6i       1.2708878998269951E-5-5.369358151657431E-11i      -2.7591421843955154E-7+1.2070675410408296E-12i    -8.569912124098698E-5+3.6814100576572354E-10i
-0.01927855711422846      0                        0.0015                   1.1270231077685597E-5+4.4903425058767955E-6i      -5.663250935442499E-6+1.6297888309905258E-7i      -1.7637068036939724E-4+6.199411167121671E-6i      1.3220657408400706E-5-5.588636259189664E-11i      -2.9779238665478616E-7+1.3002167545921598E-12i    -8.65308603787244E-5+3.7155426409733223E-10i
-0.019198396793587175     0                        0.0015                   8.844639454854992E-6+4.728973469260692E-6i        -5.613628135547281E-6+1.3736154559388053E-7i      -1.7617133334689515E-4+6.137960951868923E-6i      1.3732435818531894E-5-5.807914366722642E-11i      -3.1967055487153867E-7+1.39336596814349E-12i      -8.736259951645938E-5+3.7496752242893554E-10i
-0.01911823647294589      0                        0.0015                   6.419047832024929E-6+4.96760443264465E-6i         -5.564005335652062E-6+1.1174420808880334E-7i      -1.759719863243955E-4+6.076510736616276E-6i       1.4244214228663408E-5-6.027192474254834E-11i      -3.4154872308807434E-7+1.4865151816973018E-12i    -8.81943386541962E-5+3.783807807605406E-10i
-0.01903807615230461      0                        0.0015                   6.843055441685397E-6+4.896480534805959E-6i        -2.2836741617876521E-7+2.1633540801287285E-8i     -1.840596221389999E-4+6.526686651040509E-6i       1.4138123559707082E-5-5.983266320349065E-11i      -3.821532627412E-8+1.8310405029033374E-13i        -8.836568119136891E-5+3.7898530901900985E-10i
-0.018957915831663327     0                        0.0015                   5.61813763551907E-6+5.06631592804861E-6i          -2.537036117534683E-7+2.2481223914226764E-8i      -1.8553836636331453E-4+6.494893124935698E-6i      1.470151366867985E-5-6.223480081257713E-11i       -3.726490298327015E-8+1.7759400130145251E-13i     -8.948197609404628E-5+3.835892808006633E-10i
-0.018877755511022044     0                        0.0015                   4.393219829350141E-6+5.236151321291315E-6i        -2.7903980733077344E-7+2.3328907027220453E-8i     -1.870171105876259E-4+6.463099598830725E-6i       1.5264903777650017E-5-6.463693842164707E-11i      -3.631447969393818E-8+1.7208395231339846E-13i     -9.059827099672214E-5+3.8819325258230886E-10i
-0.01879759519038076      0                        0.0015                   3.168302023182079E-6+5.405986714533966E-6i        -3.0437600290677755E-7+2.4176590140187037E-8i     -1.8849585481194183E-4+6.4313060727259815E-6i     1.582829388662192E-5-6.703907603072859E-11i       -3.536405640373885E-8+1.6657390332534441E-13i     -9.171456589940005E-5+3.9279722436396436E-10i
-0.01871743486973948      0                        0.0015                   6.643210825139217E-7+5.53696239996553E-6i         5.637008118178263E-7+2.8553374399340973E-8i       -1.9087463826557288E-4+6.464483619171136E-6i      1.594754764587883E-5-6.753394813538465E-11i       1.7493320048349737E-7-7.448177703685531E-13i      -9.274331676639461E-5+3.970617873861955E-10i
-0.018637274549098196     0                        0.0015                   -4.114850030349868E-7+5.702371745968563E-6i       4.5631064536568334E-7+2.9108877044342363E-8i      -1.9223798547976512E-4+6.42748461773226E-6i       1.6548282220894567E-5-7.009559377970358E-11i      1.4205244857254363E-7-6.041209610510867E-13i      -9.384048786894309E-5+4.015825583828496E-10i
-0.018557114228456913     0                        0.0015                   -1.4872910885814017E-6+5.867781091971555E-6i      3.4892047891358106E-7+2.9664379689354765E-8i      -1.936013326939574E-4+6.390485616293371E-6i       1.714901679591204E-5-7.265723942402705E-11i       1.0917169666188804E-7-4.634241517339047E-13i      -9.493765897149127E-5+4.0610332937950207E-10i
-0.018476953907815633     0                        0.0015                   -2.563097174130961E-6+6.033190437974717E-6i       2.415303124615872E-7+3.0219882334367167E-8i       -1.9496467990814766E-4+6.3534866148543566E-6i     1.774975137092832E-5-7.521888506833667E-11i       7.629094475125955E-8-3.227273424176015E-13i       -9.603483007403812E-5+4.1062410037614703E-10i
-0.01839679358717435      0                        0.0015                   -3.638903259677918E-6+6.1985997839778114E-6i      1.3414014600953914E-7+3.077538497937618E-8i       -1.963280271223383E-4+6.316487613415371E-6i       1.8350485945944548E-5-7.778053071265704E-11i      4.341019284068528E-8-1.82030533099644E-13i        -9.713200117658504E-5+4.151448713727955E-10i
-0.018316633266533065     0                        0.0015                   -4.714709345227152E-6+6.364009129980858E-6i       2.6749979557382647E-8+3.133088762439197E-8i       -1.9769137433652863E-4+6.279488611976334E-6i      1.8951220520959852E-5-8.034217635696914E-11i      1.0529440929894166E-8-4.133372378189326E-14i      -9.822917227913268E-5+4.196656423694447E-10i
-0.018236472945891785     0                        0.0015                   -7.555575992275812E-6+6.644349669870234E-6i       -1.1962316595918662E-7+7.435262278200703E-9i      -1.9846244250465808E-4+6.214039174924276E-6i      1.9437791592897755E-5-8.242781221620386E-11i      -5.868597380959389E-8+2.547740389688943E-13i      -9.927052164486895E-5+4.2395379374568857E-10i
-0.0181563126252505       0                        0.0015                   -8.678897317641442E-6+6.7931303835265E-6i         -9.848742861420616E-8+7.671858714362314E-9i       -1.9998971631271772E-4+6.1958300806456965E-6i     1.991634933477056E-5-8.446858677941772E-11i       -4.058642826703686E-8+1.784587065319465E-13i      -1.0033424997475638E-4+4.2833329733071435E-10i
-0.018076152304609218     0                        0.0015                   -9.802218643011193E-6+6.941911097182969E-6i       -7.735169126965938E-8+7.908455150530702E-9i       -2.0151699012077996E-4+6.1776209863672596E-6i     2.0394907076642823E-5-8.650936134262124E-11i      -2.248688272458825E-8+1.0214337409706666E-13i     -1.0139797830464533E-4+4.327128009157484E-10i
-0.017995991983967938     0                        0.0015                   -1.0925539968376823E-5+7.090691810839262E-6i      -5.62159539251126E-8+8.145051586699089E-9i        -2.0304426392884155E-4+6.159411892088768E-6i      2.087346481851704E-5-8.855013590583014E-11i       -4.387337182248062E-9+2.5828041661773237E-14i     -1.0246170663453364E-4+4.3709230450077915E-10i
-0.017915831663326654     0                        0.0015                   -1.204886129373855E-5+7.239472524495338E-6i       -3.5080216580782655E-8+8.381648022881029E-9i      -2.0457153773690228E-4+6.141202797810311E-6i      2.1352022560393422E-5-9.059091046905061E-11i      1.3712208359766866E-8-5.048729077227942E-14i      -1.0352543496442237E-4+4.414718080858107E-10i
-0.01783567134268537      0                        0.0015                   -1.3172182619105915E-5+7.388253238151709E-6i      -1.3944479236019033E-8+8.618244459035864E-9i      -2.0609881154496365E-4+6.122993703531874E-6i      2.1830580302266444E-5-9.263168503225868E-11i      3.1811753901998634E-8-1.2680262320633207E-13i     -1.0458916329431078E-4+4.4585131167084353E-10i
-0.017755511022044087     0                        0.0015                   -1.4295503944470895E-5+7.537033951807954E-6i      7.191258108961429E-9+8.854840895204251E-9i        -2.0762608535302416E-4+6.104784609253322E-6i      2.2309138044141147E-5-9.467245959547067E-11i      4.991129944466408E-8-2.0311795564286627E-13i      -1.0565289162419952E-4+4.502308152558714E-10i
-0.017675350701402807     0                        0.0015                   -1.525837864663081E-5+7.696098224152438E-6i       -9.270226311618775E-8+5.911575099019396E-9i       -2.0894156174419893E-4+5.973849554594593E-6i      2.2981906370597176E-5-9.753173355219867E-11i      -4.6746688054939266E-8+1.984510947075539E-13i     -1.0727809977865283E-4+4.5691136760956976E-10i
-0.017595190380761523     0                        0.0015                   -1.6171251078992888E-5+7.843697212246446E-6i      -5.904714495488534E-8+3.973520155754919E-9i       -2.1058544711214798E-4+5.9137978588696865E-6i     2.3604855161052885E-5-1.0018858382395057E-10i     -3.0909881738243154E-8+1.3200786271309184E-13i    -1.0860099518258395E-4+4.623537923628777E-10i
-0.01751503006012024      0                        0.0015                   -1.708412351135288E-5+7.991296200340402E-6i       -2.539202679520923E-8+2.035465212531099E-9i       -2.1222933248010104E-4+5.853746163144889E-6i      2.4227803951507828E-5-1.0284543409570299E-10i     -1.5073075421980723E-8+6.556463071604484E-14i     -1.0992389058651637E-4+4.677962171161879E-10i
-0.01743486973947896      0                        0.0015                   -1.799699594371424E-5+8.138895188434328E-6i       8.263091365767923E-9+9.741026931744338E-11i       -2.1387321784805085E-4+5.793694467419989E-6i      2.4850752741963157E-5-1.0550228436745883E-10i     7.637308939564477E-10-8.78601279657992E-16i       -1.1124678599044722E-4+4.732386418694928E-10i
-0.017354709418837676     0                        0.0015                   -1.8909868376075818E-5+8.28649417652839E-6i       4.1918209526311395E-8-1.8406446739300934E-9i      -2.155171032160025E-4+5.733642771695198E-6i       2.5473701532417178E-5-1.0815913463920805E-10i     1.6600537210679665E-8-6.732183327422345E-14i      -1.125696813943797E-4+4.78681066622804E-10i
-0.017274549098196392     0                        0.0015                   -1.9822740808436853E-5+8.434093164622446E-6i      7.557332768688197E-8-3.77869961716916E-9i         -2.1716098858395438E-4+5.673591075970393E-6i      2.6096650322872073E-5-1.1081598491096066E-10i     3.243734352669815E-8-1.337650652692025E-13i       -1.1389257679831163E-4+4.841234913761151E-10i
-0.01719438877755511      0                        0.0015                   -2.0735613240798024E-5+8.581692152716342E-6i      1.0922844584779136E-7-5.7167545603904385E-9i      -2.1880487395190332E-4+5.613539380245456E-6i      2.6719599113327186E-5-1.1347283518271679E-10i     4.827414984302157E-8-2.0020829726617195E-13i      -1.1521547220224172E-4+4.895659161294156E-10i
-0.01711422845691383      0                        0.0015                   -2.164848567316089E-5+8.729291140810378E-6i       1.4288356400722692E-7-7.65480950361807E-9i        -2.204487593198515E-4+5.553487684520635E-6i       2.7342547903781857E-5-1.1612968545446573E-10i     6.411095615899262E-8-2.6665152925980683E-13i      -1.1653836760617479E-4+4.95008340882728E-10i
-0.017034068136272545     0                        0.0015                   -2.2561358105516055E-5+8.87689012890419E-6i       1.7653868216764503E-7-9.592864446844007E-9i       -2.2209264468780793E-4+5.493435988795962E-6i      2.7965496694238277E-5-1.187865357262324E-10i      7.99477624760682E-8-3.330947612554838E-13i        -1.1786126301010537E-4+5.004507656360418E-10i
-0.01695390781563126      0                        0.0015                   -2.3474230537878907E-5+9.024489116998253E-6i      2.1019380032856797E-7-1.153091939009832E-8i       -2.2373653005575584E-4+5.433384293071059E-6i      2.8588445484692502E-5-1.2144338599797966E-10i     9.578456879218156E-8-3.9953799325020437E-13i      -1.1918415841403681E-4+5.058931903893461E-10i
-0.01687374749498998      0                        0.0015                   -2.4387102970242625E-5+9.172088105092276E-6i      2.438489184904396E-7-1.3468974333303506E-8i       -2.2538041542370955E-4+5.37333259734617E-6i       2.9211394275146957E-5-1.241002362697286E-10i      1.1162137510749531E-7-4.659812252444079E-13i      -1.205070538179669E-4+5.11335615142657E-10i
-0.016793587174348697     0                        0.0015                   -2.4307660142508416E-5+9.293035194023301E-6i      -2.2560153572580407E-7+1.823255022877408E-10i     -2.287510015417728E-4+5.350196951727696E-6i       3.11343469785208E-5-1.3226546464795355E-10i       -2.4062393888391455E-7+1.052792105310401E-12i     -1.2337411935836552E-4+5.232994973707874E-10i
-0.016713426853707414     0                        0.0015                   -2.4227260286311097E-5+9.443729832119765E-6i      2.873886048079116E-7+1.4562905883475953E-8i       -2.286940751399548E-4+5.266401855796876E-6i       3.2496104110858574E-5-1.3816767187411376E-10i     4.343912123824789E-7-1.8006334624351985E-12i      -1.2220331460502387E-4+5.181796191239751E-10i
-0.016633266533066134     0                        0.0015                   -2.5165658036757632E-5+9.578437075521652E-6i      2.418771644589063E-7+9.839893476903342E-9i        -2.3111810967965316E-4+5.196290936507696E-6i      3.328587370210077E-5-1.415240317902609E-10i       3.709317620299163E-7-1.5361627344976322E-12i      -1.242814038561954E-4+5.267573751334891E-10i
-0.01655310621242485      0                        0.0015                   -2.536505822578125E-5+9.755479207423489E-6i       1.3701433355807046E-6+9.782965978889118E-8i       -2.3303174956508695E-4+5.157267303070593E-6i      3.3594947791368464E-5-1.4275086846508417E-10i     1.7744653429837241E-6-7.439520223196965E-12i      -1.2653221529903766E-4+5.361241169501654E-10i
-0.016472945891783566     0                        0.0015                   -2.827687890941458E-5+9.736113439383426E-6i       -9.071841989289199E-8-1.0073436178856837E-8i      -2.3537019692141347E-4+5.0878141832247705E-6i     3.059013643452171E-5-1.2994708208976304E-10i      1.786362802905922E-9-7.56423750806667E-15i        -1.2953080372634306E-4+5.487684150516303E-10i
-0.016392785571142286     0                        0.0015                   -2.878714812337474E-5+9.891414365749585E-6i       -7.039837863809283E-8-9.359049729344777E-9i       -2.377135799258605E-4+5.017143473522884E-6i       3.201785708522925E-5-1.3602731771759915E-10i      5.006997627572457E-9-2.1060252470287714E-14i      -1.3120250198692747E-4+5.555955122177095E-10i
-0.016312625250501003     0                        0.0015                   -2.929741733733468E-5+1.0046715292115823E-5i      -5.0078337382304335E-8-8.644663279868293E-9i      -2.400569629303034E-4+4.946472763821033E-6i       3.3445577735935375E-5-1.421075533454449E-10i      8.227632452808198E-9-3.455626743492891E-14i       -1.3287420024751378E-4+5.624226093837872E-10i
-0.01623246492985972      0                        0.0015                   -2.980768655129625E-5+1.0202016218482112E-5i      -2.9758296127396756E-8-7.930276830385455E-9i      -2.4240034593475234E-4+4.875802054119304E-6i      3.4873298386642966E-5-1.4818778897328074E-10i     1.1448267277556047E-8-4.805228239874292E-14i      -1.3454589850810008E-4+5.692497065498715E-10i
-0.01615230460921844      0                        0.0015                   -3.0317955765260638E-5+1.0357317144848319E-5i     -9.438254872055495E-9-7.2158903808801715E-9i      -2.4474372893919455E-4+4.805131344417307E-6i      3.630101903734709E-5-1.542680246011202E-10i       1.4668902102236135E-8-6.154829736055038E-14i      -1.3621759676868455E-4+5.76076803715944E-10i
-0.016072144288577155     0                        0.0015                   -3.060025751225088E-5+1.0561866978518465E-5i      -7.793085707473641E-9-3.281335723336569E-9i       -2.47485185570256E-4+4.725276345596234E-6i        3.8864437714994756E-5-1.6518509119232636E-10i     1.2044316676458512E-7-5.20483650464709E-13i       -1.3783477843726103E-4+5.825803524229704E-10i
-0.01599198396793587      0                        0.0015                   -3.115009539861838E-5+1.0711981292583178E-5i      1.6276457147491938E-8-3.047461883043751E-9i       -2.4973462812846243E-4+4.657636159498978E-6i      4.0175076836298494E-5-1.7077005674633015E-10i     1.1547729002695597E-7-4.980814253278558E-13i      -1.3944945020791192E-4+5.891797399635926E-10i
-0.015911823647294588     0                        0.0015                   -3.1699933284989346E-5+1.0862095606648E-5i        4.0346000003052134E-8-2.8135880427814394E-9i      -2.519840706866639E-4+4.589995973401543E-6i       4.148571595760223E-5-1.763550223003323E-10i       1.1051141328946106E-7-4.756792001901706E-13i      -1.410641219785623E-4+5.957791275042009E-10i
-0.015831663326653308     0                        0.0015                   -3.224977117136441E-5+1.1012209920712907E-5i      6.441554285824048E-8-2.579714202499646E-9i        -2.542335132448654E-4+4.522355787304148E-6i       4.2796355078902196E-5-1.8193998785431846E-10i     1.0554553655178404E-7-4.532769750519118E-13i      -1.4267879374921193E-4+6.023785150448068E-10i
-0.015751503006012024     0                        0.0015                   -3.27996090577358E-5+1.116232423477773E-5i        8.84850857134246E-8-2.3458403622338933E-9i        -2.5648295580306673E-4+4.454715601206717E-6i      4.410699420020507E-5-1.875249534083157E-10i       1.0057965981445389E-7-4.308747499145456E-13i      -1.4429346551986043E-4+6.089779025854151E-10i
-0.01567134268537074      0                        0.0015                   -3.3349446944104165E-5+1.1312438548842443E-5i     1.1255462856860574E-7-2.1119665219546376E-9i      -2.587323983612703E-4+4.387075415109376E-6i       4.541763332150924E-5-1.9310991896232278E-10i      9.561378307695941E-8-4.0847252477737817E-13i      -1.4590813729051146E-4+6.155772901260308E-10i
-0.015591182364729459     0                        0.0015                   -3.389928483047675E-5+1.1462552862907349E-5i      1.3662417142419471E-7-1.8780926816792242E-9i      -2.6098184091947135E-4+4.31943522901198E-6i       4.672827244281066E-5-1.9869488451631033E-10i      9.06479063395621E-8-3.860702996405392E-13i        -1.475228090611607E-4+6.221766776666354E-10i
-0.015511022044088177     0                        0.0015                   -3.444912271684803E-5+1.1612667176972104E-5i      1.606937142792319E-7-1.6442188414122266E-9i       -2.632312834776748E-4+4.251795042914576E-6i       4.80389115641136E-5-2.042798500703136E-10i        8.568202960204498E-8-3.636680745020812E-13i       -1.491374808318111E-4+6.287760652072487E-10i
-0.015430861723446893     0                        0.0015                   -3.4998960603218564E-5+1.1762781491036846E-5i     1.8476325713474677E-7-1.4103450011431883E-9i      -2.654807260358772E-4+4.184154856817212E-6i       4.934955068541495E-5-2.0986481562430498E-10i      8.071615286464876E-8-3.412658493653209E-13i       -1.507521526024608E-4+6.353754527478597E-10i
-0.015350701402805611     0                        0.0015                   -3.554879848958811E-5+1.1912895805101601E-5i      2.0883279999001855E-7-1.176471160870646E-9i       -2.6773016859408085E-4+4.116514670719836E-6i      5.066018980672006E-5-2.1544978117831242E-10i      7.575027612724957E-8-3.1886362422777135E-13i      -1.5236682437311065E-4+6.419748402884705E-10i
-0.01527054108216433      0                        0.0015                   -3.609863637596112E-5+1.2063010119166467E-5i      2.329023428453653E-7-9.425973205930811E-10i       -2.6997961115228275E-4+4.048874484622473E-6i      5.1970828928021254E-5-2.210347467323074E-10i      7.078439938966403E-8-2.964613990907566E-13i       -1.5398149614376052E-4+6.485742278290838E-10i
-0.015190380761523046     0                        0.0015                   -3.664847426233187E-5+1.2213124433231288E-5i      2.569718857004647E-7-7.087234803248402E-10i       -2.722290537104865E-4+3.9812342985251365E-6i      5.3281468049324017E-5-2.266197122863054E-10i      6.581852265216913E-8-2.7405917395322644E-13i      -1.5559616791441195E-4+6.551736153696997E-10i
-0.015110220440881762     0                        0.0015                   -3.694389335829121E-5+1.23704157619892E-5i        4.351556112365887E-8-1.1256421330387316E-8i       -2.757917821402281E-4+3.8791392109885836E-6i      5.517545082223477E-5-2.3463161375770283E-10i      -9.211043785150273E-8+3.978545156875891E-13i      -1.5870991051162892E-4+6.679926375523859E-10i
-0.015030060120240482     0                        0.0015                   -3.748537862105581E-5+1.2528260876872092E-5i      -4.718285993117119E-8-7.560509488569811E-9i       -2.787629458052628E-4+3.7882520978903722E-6i      5.687468673324552E-5-2.418566917239277E-10i       -7.44373426309411E-8+3.21977539320883E-13i        -1.6118426884565514E-4+6.781827880013348E-10i
-0.014949899799599198     0                        0.0015                   -3.8026863883820414E-5+1.2686105991754985E-5i     -1.3788128098556757E-7-3.86459764676586E-9i       -2.817341094703031E-4+3.6973649847923506E-6i      5.857392264425583E-5-2.490817696901509E-10i       -5.67642474105963E-8+2.461005629558313E-13i       -1.6365862717968396E-4+6.883729384503003E-10i
-0.014869739478957915     0                        0.0015                   -3.910504669999576E-5+1.2836008602597215E-5i      -3.46832835482517E-8-1.935073702650673E-9i        -2.844790733085194E-4+3.6239106025308545E-6i      6.026271142239815E-5-2.5626766735000257E-10i      -8.127900325154733E-8+3.5352714364061564E-13i     -1.6595531543590701E-4+6.977950221100386E-10i
-0.014789579158316633     0                        0.0015                   -3.972574165484854E-5+1.299382423340729E-5i       -8.275592537308198E-8-2.570190067374963E-9i       -2.8758582712527157E-4+3.529099427337631E-6i      6.205423096861785E-5-2.6388267237974013E-10i      -1.259299522747082E-7+5.442029097705266E-13i      -1.6859065509447298E-4+7.086515344183288E-10i
-0.014709418837675351     0                        0.0015                   -4.03464366097049E-5+1.3151639864217533E-5i       -1.308285671974176E-7-3.2053064321020057E-9i      -2.9069258094202544E-4+3.4342882521441638E-6i     6.384575051483578E-5-2.714976774094686E-10i       -1.7058090129783518E-7+7.348786758999723E-13i     -1.7122599475303721E-4+7.195080467266221E-10i
-0.014629258517034067     0                        0.0015                   -4.096713156455823E-5+1.3309455495027603E-5i      -1.7890120902116707E-7-3.840422796858695E-9i      -2.937993347587808E-4+3.339477076950886E-6i       6.563727006105559E-5-2.7911268243920366E-10i      -2.1523185032067417E-7+9.255544420316928E-13i     -1.738613344116005E-4+7.303645590349112E-10i
-0.014549098196392786     0                        0.0015                   -4.1587826519411906E-5+1.3467271125837637E-5i     -2.2697385084633956E-7-4.475539161546139E-9i      -2.96906088575536E-4+3.24466590175765E-6i         6.742878960727619E-5-2.867276874689412E-10i       -2.5988279934337086E-7+1.1162302081604664E-12i    -1.7649667407016733E-4+7.412210713432128E-10i
-0.014468937875751504     0                        0.0015                   -4.22085214742672E-5+1.3625086756647792E-5i       -2.750464926720101E-7-5.110655526278052E-9i       -3.000128423922895E-4+3.149854726564183E-6i       6.922030915349343E-5-2.9434269249866983E-10i      -3.04533748366918E-7+1.3069059742947201E-12i      -1.7913201372872874E-4+7.520775836514838E-10i
-0.01438877755511022      0                        0.0015                   -4.2829216429123395E-5+1.3782902387458036E-5i     -3.2311913449473975E-7-5.745771891054011E-9i      -3.0311959620904516E-4+3.055043551370684E-6i      7.101182869971268E-5-3.0195769752840423E-10i      -3.4918469738907595E-7+1.4975817404215292E-12i    -1.8176735338729368E-4+7.629340959597939E-10i
-0.014308617234468936     0                        0.0015                   -4.396215595133413E-5+1.391441811212274E-5i       6.968162504557979E-7+4.867009376541189E-8i        -3.065240614505958E-4+2.9458387103627637E-6i      7.253592936179573E-5-3.084475457459389E-10i       2.9782305595738717E-7-1.2678930282394076E-12i     -1.8422215589287928E-4+7.728970979952633E-10i
-0.014228456913827656     0                        0.0015                   -4.441595239010939E-5+1.4089812549027473E-5i      7.587228549130881E-7+3.3213440739289935E-8i       -3.0971324123805306E-4+2.850912820106925E-6i      7.473854809845592E-5-3.178071797741119E-10i       6.428449052589547E-8-2.809484539161132E-13i       -1.8675452077484872E-4+7.832760487379232E-10i
-0.014148296593186373     0                        0.0015                   -4.486974882887424E-5+1.426520698593188E-5i       8.206294593755825E-7+1.775678771305956E-8i        -3.1290242102550514E-4+2.7559869298509232E-6i     7.694116683512088E-5-3.2716681380228817E-10i      -1.6925407490125943E-7+7.059961204038725E-13i     -1.8928688565681383E-4+7.936549994805624E-10i
-0.014068136272545089     0                        0.0015                   -4.5323545267644295E-5+1.4440601422836531E-5i     8.825360638346075E-7+2.3001346867749725E-9i       -3.160916008129607E-4+2.6610610395951114E-6i      7.914378557178194E-5-3.365264478304628E-10i       -4.0279264033014905E-7+1.692940694713932E-12i     -1.9181925053878522E-4+8.040339502232182E-10i
-0.013987975951903807     0                        0.0015                   -4.5819296675085434E-5+1.4650995953916998E-5i     1.5987848299182927E-6+1.349994547409153E-7i       -3.217012789018955E-4+2.3926950034981186E-6i      8.119095569061787E-5-3.4521791440997506E-10i      9.560891012141276E-7-4.060531434685389E-12i       -1.9867406069790116E-4+8.327334987499876E-10i
-0.013907815631262525     0                        0.0015                   -4.805112412792443E-5+1.4737535561986325E-5i      5.04460261183462E-7+5.205753401548059E-8i         -3.221794659918117E-4+2.45519694808623E-6i        8.085054694244439E-5-3.4386692572745967E-10i      -6.374598766310802E-7+2.7646309668573446E-12i     -1.9561949357259947E-4+8.195355732038544E-10i
-0.013827655310621242     0                        0.0015                   -4.8501365559656603E-5+1.4932318306487395E-5i     4.259067347776174E-7+4.492995598823473E-8i        -3.260067428855415E-4+2.3327004077652325E-6i      8.400304565914143E-5-3.572478106982254E-10i       -6.433550950304609E-7+2.78214832442586E-12i       -1.9897987051746975E-4+8.333163866048916E-10i