% Model:              FEA.mph
% Version:            COMSOL 6.0.0.318
% Date:               Oct 30 2022, 11:59
% Dimension:          3
% Nodes:              500
% Expressions:        6
% Description:        Magnetic flux density, x component, Magnetic flux density, y component, Magnetic flux density, z component
% Length unit:        m
% x                       y                        z                        mf.Bx (T) @ freq=500, Material Switch 1=Stainless Steel mf.By (T) @ freq=500, Material Switch 1=Stainless Steel mf.Bz (T) @ freq=500, Material Switch 1=Stainless Steel mf.Bx (T) @ freq=500, Material Switch 1=Air       mf.By (T) @ freq=500, Material Switch 1=Air       mf.Bz (T) @ freq=500, Material Switch 1=Air
-0.02                     0                        0.0015                   2.6076427803963843E-5+3.058714649144001E-6i       -9.692705800530435E-7+5.78357428150303E-8i        -1.5899770907688133E-4+5.993738162843643E-6i      1.0251282032769284E-5-4.3211907945792827E-11i     7.362710696817167E-8-3.1615813255700885E-13i      -7.851566474816941E-5+3.3839252901603393E-10i
-0.019919839679358717     0                        0.0015                   2.461863269494319E-5+3.1988733494116976E-6i       -3.7112366361373265E-7+3.138244907416324E-8i      -1.620028848839715E-4+6.078605570347128E-6i       1.0549080261383907E-5-4.448300747426268E-11i      8.089412826726115E-8-3.481039026340128E-13i       -7.930581337527902E-5+3.4165712696783223E-10i
-0.019839679358717437     0                        0.0015                   2.3160837585921182E-5+3.3390320496794774E-6i      2.270232528282616E-7+4.929155333225022E-9i        -1.650080606910619E-4+6.163472977850626E-6i       1.0846878489997663E-5-4.5754107002729175E-11i     8.816114956686563E-8-3.800496727124126E-13i       -8.009596200239005E-5+3.449217249196359E-10i
-0.019759519038076153     0                        0.0015                   2.1703042476899092E-5+3.4791907499472555E-6i      8.251701692685211E-7-2.1524138407614938E-8i       -1.6801323649815337E-4+6.248340385354192E-6i      1.1144676718611283E-5-4.702520653119479E-11i      9.542817086592801E-8-4.119954427882275E-13i       -8.088611062949966E-5+3.481863228714367E-10i
-0.01967935871743487      0                        0.0015                   2.0245247367878033E-5+3.619349450214988E-6i       1.4233170857082386E-6-4.797743214849894E-8i       -1.710184123052468E-4+6.333207792857812E-6i       1.1442474947224985E-5-4.8296306059663766E-11i     1.0269519216553249E-7-4.4394121286952246E-13i     -8.167625925661155E-5+3.514509208232408E-10i
-0.01959919839679359      0                        0.0015                   1.8787452258857515E-5+3.759508150482666E-6i       2.021464002150558E-6-7.443072588941683E-8i        -1.7402358811233806E-4+6.41807520036127E-6i       1.1740273175840123E-5-4.95674055881346E-11i       1.0996221346535381E-7-4.758869829444068E-13i      -8.246640788372203E-5+3.547155187750366E-10i
-0.019519038076152306     0                        0.0015                   1.854895950796848E-5+3.7745535024171124E-6i       -5.811897563550057E-6+2.398090350300456E-7i       -1.7697456951739753E-4+6.383976556974923E-6i      1.1685508920685535E-5-4.9308977241335404E-11i     -2.322053006859233E-7+1.020848528404667E-12i      -8.403813270901938E-5+3.6131989635818445E-10i
-0.019438877755511022     0                        0.0015                   1.6123550672926578E-5+4.013182129076486E-6i       -5.762144882811779E-6+2.141856986469519E-7i       -1.7677547362093436E-4+6.322532959227591E-6i      1.2197303274555187E-5-5.150182072851525E-11i      -2.540679791573387E-7+1.1139231536598941E-12i     -8.486990281969509E-5+3.6473322699620647E-10i
-0.01935871743486974      0                        0.0015                   1.3698141837885434E-5+4.251810755736002E-6i       -5.712392202075235E-6+1.8856236226387176E-7i      -1.7657637772446912E-4+6.26108936148015E-6i       1.2709097628423212E-5-5.369466421568931E-11i      -2.7593065762918784E-7+1.206997778913467E-12i     -8.570167293037021E-5+3.68146557634226E-10i
-0.01927855711422846      0                        0.0015                   1.127273300284093E-5+4.4904393823955925E-6i       -5.6626395213373905E-6+1.629390258807645E-7i      -1.7637728182800768E-4+6.199645763732892E-6i      1.3220891982291616E-5-5.5887507702862956E-11i     -2.9779333610060327E-7+1.300072404163731E-12i     -8.653344304104745E-5+3.7155988827225135E-10i
-0.019198396793587175     0                        0.0015                   8.847324167801955E-6+4.729068009055034E-6i        -5.612886840601714E-6+1.3731568949769792E-7i      -1.7617818593154417E-4+6.138202165985505E-6i      1.373268633616013E-5-5.808035119004363E-11i       -3.19656014571585E-7+1.3931470294189582E-12i      -8.736521315172294E-5+3.749732189102647E-10i
-0.01911823647294589      0                        0.0015                   6.421915332758318E-6+4.96769663571455E-6i         -5.563134159864737E-6+1.1169235311460422E-7i      -1.7597909003508127E-4+6.076758568238173E-6i      1.4244480690029401E-5-6.02731946772181E-11i       -3.415186930432173E-7+1.4862216546708767E-12i     -8.819698326239961E-5+3.783865495482863E-10i
-0.01903807615230461      0                        0.0015                   6.8451628821410496E-6+4.896582884281642E-6i       -2.2803843698461848E-7+2.1624054133027523E-8i     -1.8406517008559466E-4+6.526890257467841E-6i      1.4138319636281763E-5-5.98336540829843E-11i       -3.8071582038421564E-8+1.8233862679206238E-13i    -8.836832457197955E-5+3.789910484736711E-10i
-0.018957915831663327     0                        0.0015                   5.620154368030962E-6+5.066422290229608E-6i        -2.5341489769950196E-7+2.247313714756464E-8i      -1.8554392368227263E-4+6.495093771703047E-6i      1.4701709131758733E-5-6.223577695771925E-11i      -3.7140795415297606E-8+1.7691747653977548E-13i    -8.948465714323612E-5+3.835951112614121E-10i
-0.018877755511022044     0                        0.0015                   4.39514585391567E-6+5.236261696177737E-6i         -2.787913584156865E-7+2.3322220162101757E-8i      -1.8702267727894713E-4+6.4632972859382396E-6i     1.5265098627230498E-5-6.463789983244924E-11i      -3.621000879173997E-8+1.7149632628500703E-13i     -9.060098971449095E-5+3.8819917404915683E-10i
-0.01879759519038076      0                        0.0015                   3.170137339802981E-6+5.406101102125758E-6i        -3.04167819131871E-7+2.417130317666598E-8i        -1.8850143087562683E-4+6.431500800173676E-6i      1.5828488122705733E-5-6.704002270717757E-11i      -3.527922216818233E-8+1.6607517603106577E-13i     -9.171732228574871E-5+3.9280323683690775E-10i
-0.01871743486973948      0                        0.0015                   6.660775969072764E-7+5.537094813487971E-6i        5.640055357870421E-7+2.8534054142582638E-8i       -1.908807527830406E-4+6.464703987324057E-6i       1.5947815824071264E-5-6.753523684685332E-11i      1.7495652197825715E-7-7.450342867748717E-13i      -9.274607493853012E-5+3.970677592485544E-10i
-0.018637274549098196     0                        0.0015                   -4.0987297595079363E-7+5.702509828378429E-6i      4.566640329441336E-7+2.9086735099877168E-8i       -1.9224422855553338E-4+6.427707564865573E-6i      1.6548546878955334E-5-7.009685817670871E-11i      1.420644984196799E-7-6.042854792464636E-13i       -9.384328502224442E-5+4.0158863217181063E-10i
-0.018557114228456913     0                        0.0015                   -1.4858235488060447E-6+5.867924843268805E-6i      3.4932253010160454E-7+2.9639416057183557E-8i      -1.9360770432802612E-4+6.390711142407087E-6i      1.714927793384092E-5-7.265847950657424E-11i       1.0917247486144145E-7-4.635366717174868E-13i      -9.494049510595798E-5+4.0610950509506526E-10i
-0.018476953907815633     0                        0.0015                   -2.5617741216648737E-6+6.033339858159357E-6i      2.4198102725899416E-7+3.0192097014484863E-8i      -1.9497118010051653E-4+6.353714719948557E-6i      1.775000898872304E-5-7.522010083643667E-11i       7.628045130272866E-8-3.2278786418923373E-13i      -9.603770518967032E-5+4.1063037801831523E-10i
-0.01839679358717435      0                        0.0015                   -3.6377246945218595E-6+6.198754873049801E-6i      1.3463952441665483E-7+3.0744777971792946E-8i      -1.9633465587300746E-4+6.316718297490015E-6i      1.8350740043607218E-5-7.77817221662964E-11i       4.3388427744476665E-8-1.820390566600501E-13i      -9.713491527338294E-5+4.151512509415661E-10i
-0.018316633266533065     0                        0.0015                   -4.713675267379713E-6+6.364169887940293E-6i       2.7298021573610772E-8+3.129745892909425E-8i       -1.9769813164549833E-4+6.279721875031429E-6i      1.8951471098489932E-5-8.034334349615283E-11i      1.0496404185980721E-8-4.129024912921213E-14i      -9.823212535709564E-5+4.196721238648179E-10i
-0.018236472945891785     0                        0.0015                   -7.554993311155011E-6+6.644542907519965E-6i       -1.1921559064952993E-7+7.417220983871461E-9i      -1.9846913282498663E-4+6.214258316883744E-6i      1.943807848128168E-5-8.242910751056485E-11i       -5.867355756100905E-8+2.546103780504245E-13i      -9.927354288698253E-5+4.239604991003501E-10i
-0.0181563126252505       0                        0.0015                   -8.67846143864882E-6+6.793330292041575E-6i        -9.814047372057148E-8+7.656741731677688E-9i       -1.9999648249939832E-4+6.1960489936560285E-6i     1.9916635353949713E-5-8.446987262279684E-11i      -4.05732730361175E-8+1.7829600486133225E-13i      -1.0033731091646752E-4+4.28340108381232E-10i
-0.018076152304609218     0                        0.0015                   -9.801929566148051E-6+6.942117676563429E-6i       -7.706535679117936E-8+7.896262479477139E-9i       -2.0152383217381413E-4+6.177839670428503E-6i      2.0395192226615576E-5-8.651063773501477E-11i      -2.2472988511117523E-8+1.0198163166727694E-13i    -1.0140107894595328E-4+4.3271971766212385E-10i
-0.017995991983967938     0                        0.0015                   -1.0925397693643379E-5+7.090905061085066E-6i      -5.5990239862004076E-8+8.135783227303695E-9i      -2.0305118184822885E-4+6.159630347200929E-6i      2.0873749099283717E-5-8.855140284724263E-11i      -4.372703986876489E-9+2.5667258477357538E-14i     -1.0246484697543979E-4+4.3709932694301486E-10i
-0.017915831663326654     0                        0.0015                   -1.2048865821134153E-5+7.239692445606594E-6i      -3.4915122933479315E-8+8.375303975116698E-9i      -2.0457853152264314E-4+6.1414210239733085E-6i     2.1352305971953593E-5-9.05921679594771E-11i       1.3727580537798226E-8-5.0647114708425965E-14i     -1.0352861500492532E-4+4.414789362239001E-10i
-0.01783567134268537      0                        0.0015                   -1.3172333948629697E-5+7.388479830128265E-6i      -1.3840006004520872E-8+8.614824722916149E-9i      -2.0610588119705808E-4+6.123211700745688E-6i      2.1830862844621408E-5-9.263293307169999E-11i      3.182786506258136E-8-1.2696148789917255E-13i      -1.0459238303441195E-4+4.458585455047861E-10i
-0.017755511022044087     0                        0.0015                   -1.4295802076123507E-5+7.537267214649883E-6i      7.235110924871252E-9+8.854345470742705E-9i        -2.076332308714715E-4+6.105002377518101E-6i       2.230941971728906E-5-9.467369818392991E-11i       4.9928149587256075E-8-2.0327586108661041E-13i     -1.0565615106389683E-4+4.502381547856763E-10i
-0.017675350701402807     0                        0.0015                   -1.525884450782656E-5+7.696346981270765E-6i       -9.263327601977036E-8+5.880456282613029E-9i       -2.0894831412538752E-4+5.9740273856156875E-6i     2.2982234530316572E-5-9.753316322738835E-11i      -4.690429845373824E-8+1.990446058084697E-13i      -1.0728154971877514E-4+4.5691941687120444E-10i
-0.017595190380761523     0                        0.0015                   -1.6171801647216102E-5+7.843950722067832E-6i      -5.899128704023749E-8+3.946486235818569E-9i       -2.105922780057637E-4+5.913971292547974E-6i       2.3605181730089475E-5-1.0019000338601967E-10i     -3.104267593022694E-8+1.3250161901833006E-13i     -1.086045146274407E-4+4.6236205941802976E-10i
-0.01751503006012024      0                        0.0015                   -1.7084758786604974E-5+7.991554462864927E-6i      -2.5349298062547765E-8+2.012516189068154E-9i      -2.122362418861437E-4+5.85391519948047E-6i        2.4228128929862533E-5-1.0284684354465223E-10i     -1.5181053407908266E-8+6.595863223077536E-14i     -1.0992747953610842E-4+4.678047019648567E-10i
-0.01743486973947896      0                        0.0015                   -1.7997715925993697E-5+8.139158203662005E-6i      8.292690916280373E-9+7.854614236178477E-11i       -2.1388020576652042E-4+5.79385910641281E-6i       2.4851076129635646E-5-1.0550368370328545E-10i     6.805691147627763E-10-5.84354559777864E-16i       -1.1125044444477381E-4+4.732473445116798E-10i
-0.017354709418837676     0                        0.0015                   -1.8910673065384602E-5+8.286761944459151E-6i      4.1934679893048527E-8-1.8554239043801598E-9i      -2.1552416964689997E-4+5.7338030133452725E-6i     2.5474023329408E-5-1.0816052386191659E-10i        1.65421916373254E-8-6.712734134707407E-14i        -1.1257340935344132E-4+4.786899870585094E-10i
-0.017274549098196392     0                        0.0015                   -1.9823630204774504E-5+8.434365685256284E-6i      7.557666887109062E-8-3.789393951108552E-9i        -2.1716813352727995E-4+5.673746920277721E-6i      2.609697052918025E-5-1.108173640205454E-10i       3.2403814159535655E-8-1.3367032813788578E-13i     -1.1389637426210785E-4+4.841326296053366E-10i
-0.01719438877755511      0                        0.0015                   -2.0736587344164135E-5+8.58196942605334E-6i       1.0921865784998652E-7-5.723363997879719E-9i       -2.1881209740765668E-4+5.613690827210065E-6i      2.671991772895358E-5-1.1347420417917796E-10i      4.826543668279623E-8-2.0021331492673295E-13i      -1.1521933917077237E-4+4.895752721521584E-10i
-0.01711422845691383      0                        0.0015                   -2.1649544483552397E-5+8.729573166850494E-6i      1.428606468264362E-7-7.657334044558983E-9i        -2.2045606128803514E-4+5.553634734142497E-6i      2.7342864928726043E-5-1.16131044337811E-10i       6.412705920532497E-8-2.6675630171610356E-13i      -1.1654230407943977E-4+4.950179146989836E-10i
-0.017034068136272545     0                        0.0015                   -2.2562501622937746E-5+8.877176907647372E-6i      1.7650263580429532E-7-9.59130409133862E-9i        -2.2210002516841702E-4+5.493578641075068E-6i      2.7965812128502205E-5-1.1878788449644972E-10i     7.998868172792825E-8-3.33299288500524E-13i        -1.1786526898810846E-4+5.004605572458161E-10i
-0.01695390781563126      0                        0.0015                   -2.347545876233208E-5+9.024780648444539E-6i       2.1014462478363845E-7-1.152527413805939E-8i       -2.237439890487949E-4+5.433522548007411E-6i       2.8588759328273576E-5-1.2144472465507779E-10i     9.58503042506535E-8-3.9984227529218877E-13i       -1.1918823389677261E-4+5.059031997926386E-10i
-0.01687374749498998      0                        0.0015                   -2.4388415901720775E-5+9.172384389241787E-6i      2.4378661376281896E-7-1.345924418476237E-8i       -2.2538795292917184E-4+5.37346645493987E-6i       2.9211706528045164E-5-1.2410156481370916E-10i     1.1171192677259271E-7-4.663852620815012E-13i      -1.2051119880544141E-4+5.113458423394693E-10i
-0.016793587174348697     0                        0.0015                   -2.430851662416864E-5+9.293325402194116E-6i       -2.254712195861973E-7+1.5893748734043737E-10i     -2.2875802782392976E-4+5.350344935131503E-6i      3.113465917376081E-5-1.3226676398710355E-10i      -2.405811042080583E-7+1.0525855900854184E-12i     -1.2337796797533995E-4+5.23308197363819E-10i
-0.016713426853707414     0                        0.0015                   -2.4228212327039847E-5+9.444045761037539E-6i      2.8751484570585517E-7+1.4578131992206995E-8i      -2.287024701946895E-4+5.266552387304599E-6i       3.2496217998889226E-5-1.3816795817210855E-10i     4.3445000543276824E-7-1.800827680628069E-12i      -1.2220819552086377E-4+5.181931440144711E-10i
-0.016633266533066134     0                        0.0015                   -2.5166655311534714E-5+9.578757979185232E-6i      2.420466156125359E-7+9.854911718273907E-9i        -2.3112659125645169E-4+5.1964376810220226E-6i     3.328600186285199E-5-1.4152438819375565E-10i      3.710513681049604E-7-1.536636748544402E-12i       -1.2428633819005185E-4+5.26771006650921E-10i
-0.01655310621242485      0                        0.0015                   -2.5366870748552012E-5+9.755704423957117E-6i      1.37049009234203E-6+9.784777971305852E-8i         -2.330407598915658E-4+5.157351426142274E-6i       3.359442232511115E-5-1.4274819137406048E-10i      1.774714142353936E-6-7.440508551368648E-12i       -1.2653759482896638E-4+5.361396782726211E-10i
-0.016472945891783566     0                        0.0015                   -2.827727276918143E-5+9.736414182839918E-6i       -8.975961166265219E-8-1.0017433124844966E-8i      -2.353788457790972E-4+5.087906351141417E-6i       3.059063421804889E-5-1.2994926360066216E-10i      2.273563863433928E-9-9.743084306864006E-15i       -1.295356293457623E-4+5.487812795054111E-10i
-0.016392785571142286     0                        0.0015                   -2.878763123006318E-5+9.891719574149554E-6i       -6.948509005867297E-8-9.304416029482665E-9i       -2.377222375814158E-4+5.017241796043767E-6i       3.201832845252758E-5-1.3602935347337998E-10i      5.49990566450938E-9-2.3256418961018092E-14i       -1.3120732722883273E-4+5.556082319432033E-10i
-0.016312625250501003     0                        0.0015                   -2.9297989690942874E-5+1.0047024965459381E-5i     -4.921056845436848E-8-8.59139893414281E-9i        -2.4006562938373033E-4+4.946577240946016E-6i      3.3446022687007456E-5-1.4210944334609202E-10i     8.726247465910093E-9-3.676975361682654E-14i       -1.328790251119016E-4+5.62435184381012E-10i
-0.01623246492985972      0                        0.0015                   -2.9808348151822567E-5+1.0202330356769093E-5i     -2.893604685029439E-8-7.878381838796603E-9i       -2.424090211860487E-4+4.8759126858485774E-6i      3.487371692148701E-5-1.4818953321880322E-10i      1.1952589267263372E-8-5.0283088270980626E-14i     -1.345507229949718E-4+5.692621368188091E-10i
-0.01615230460921844      0                        0.0015                   -3.031870661270497E-5+1.0357635748078892E-5i      -8.661525246206748E-9-7.165364743427525E-9i       -2.447524129883614E-4+4.805248130750764E-6i       3.6301411155964015E-5-1.5426962309152104E-10i     1.517893106854889E-8-6.379642292802984E-14i       -1.3622242087804067E-4+5.760890892566042E-10i
-0.016072144288577155     0                        0.0015                   -3.0601637886054633E-5+1.0562180642904426E-5i     -7.077034914837745E-9-3.2343952588732447E-9i      -2.474935869882039E-4+4.7253885250743825E-6i      3.886484264510062E-5-1.651867908216901E-10i       1.2096849574762765E-7-5.228019142951613E-13i      -1.3783952133162092E-4+5.825920909877547E-10i
-0.01599198396793587      0                        0.0015                   -3.115147889051131E-5+1.0712300122240685E-5i      1.6958928762541507E-8-3.0026013830689024E-9i      -2.497430564611807E-4+4.657751037945014E-6i       4.017548812096609E-5-1.707717698125601E-10i       1.160064932489256E-7-5.004080714632103E-13i       -1.394542242989517E-4+5.891914920158608E-10i
-0.015911823647294588     0                        0.0015                   -3.170131989496799E-5+1.0862419601576997E-5i      4.099489244035359E-8-2.7708075072916785E-9i       -2.519925259341537E-4+4.590113550815483E-6i       4.1486133596829836E-5-1.763567488034243E-10i      1.1104449075065595E-7-4.780142286335341E-13i      -1.410689272662805E-4+5.957908930439573E-10i
-0.015831663326653308     0                        0.0015                   -3.225116089942791E-5+1.1012539080913395E-5i      6.503085611784719E-8-2.539013631498374E-9i        -2.542419954071272E-4+4.522476063685963E-6i       4.279677907269154E-5-1.8194172779428397E-10i      1.0608248825220378E-7-4.556203858042715E-13i      -1.426836302336096E-4+6.023902940720593E-10i
-0.015751503006012024     0                        0.0015                   -3.2801001903885876E-5+1.116265856024979E-5i      8.906681979577151E-8-2.3072197557143342E-9i       -2.564914648801002E-4+4.454838576556461E-6i       4.410742454855442E-5-1.8752670678514693E-10i      1.011204857537463E-7-4.332265429752157E-13i       -1.4429833320093815E-4+6.089896951001543E-10i
-0.01567134268537074      0                        0.0015                   -3.335084290834083E-5+1.1312778039585938E-5i      1.131027834734756E-7-2.0754258799218637E-9i       -2.5874093435307536E-4+4.387201089427008E-6i      4.541807002441947E-5-1.931116857760157E-10i       9.615848325534135E-8-4.1083270014362663E-13i      -1.459130361682685E-4+6.155890961282569E-10i
-0.015591182364729459     0                        0.0015                   -3.390068391279999E-5+1.1462897518922362E-5i      1.3713874715120785E-7-1.8436320041434035E-9i      -2.609904038260482E-4+4.319563602297498E-6i       4.672871550028132E-5-1.9869666476687411E-10i      9.119648075706059E-8-3.8843885731470813E-13i      -1.475277391355968E-4+6.22188497156357E-10i
-0.015511022044088177     0                        0.0015                   -3.445052491725655E-5+1.1613016998258648E-5i      1.6117471082893036E-7-1.6118381283390567E-9i      -2.6323987329902274E-4+4.2519261151680165E-6i     4.803936097614621E-5-2.0428164375773957E-10i      8.623447825852456E-8-3.660450144849075E-13i       -1.4914244210292673E-4+6.287878981844561E-10i
-0.015430861723446893     0                        0.0015                   -3.5000365921713235E-5+1.1763136477594961E-5i     1.8521067450678353E-7-1.3800442525529356E-9i      -2.654893427719978E-4+4.184288628038492E-6i       4.935000645200822E-5-2.0986662274860295E-10i      8.127247576023067E-8-3.4365117165467554E-13i      -1.5075714507025603E-4+6.353872992125566E-10i
-0.015350701402805611     0                        0.0015                   -3.5550206926168925E-5+1.1913255956931139E-5i     2.092466381844097E-7-1.1482503767697824E-9i       -2.677388122449715E-4+4.116651140909023E-6i       5.066065192787485E-5-2.1545160173947326E-10i      7.631047326182021E-8-3.2125732882580066E-13i      -1.5237184803758508E-4+6.419867002406601E-10i
-0.01527054108216433      0                        0.0015                   -3.6100047930628525E-5+1.2063375436267603E-5i     2.332826018620905E-7-9.164565009823941E-10i       -2.6998828171794474E-4+4.049013653779555E-6i      5.197129740373605E-5-2.210365807303311E-10i       7.134847076334431E-8-2.9886348599540067E-13i      -1.5398655100491457E-4+6.485861012687581E-10i
-0.015190380761523046     0                        0.0015                   -3.664988893508542E-5+1.2213494915603889E-5i      2.573185655399839E-7-6.846626251975601E-10i       -2.7223775119092244E-4+3.981376166650112E-6i      5.328194287959947E-5-2.266215597211962E-10i       6.638646826495228E-8-2.764696431648456E-13i       -1.5560125397224477E-4+6.55185502296866E-10i
-0.015110220440881762     0                        0.0015                   -3.6945477848165584E-5+1.237078315826848E-5i      4.340281145164687E-8-1.1262084547678268E-8i       -2.758005573294652E-4+3.879273347991304E-6i       5.5175877873880116E-5-2.346332096160646E-10i      -9.207225004658794E-8+3.9804730183891334E-13i     -1.5871542763923503E-4+6.680064415385488E-10i
-0.015030060120240482     0                        0.0015                   -3.7486924802410636E-5+1.2528632574726256E-5i     -4.730243731388903E-8-7.572664253570837E-9i       -2.787718468015353E-4+3.788383488664379E-6i       5.687513261890724E-5-2.4185836520577843E-10i      -7.440908649371074E-8+3.2222437579187106E-13i     -1.6118985963420166E-4+6.781967500461048E-10i
-0.014949899799599198     0                        0.0015                   -3.802837175665569E-5+1.2686481991184114E-5i      -1.380076860776902E-7-3.883243959463406E-9i       -2.817431362736075E-4+3.697493629337454E-6i       5.857438736393394E-5-2.4908352079549225E-10i      -5.67459229417009E-8+2.464014497440016E-13i       -1.6366429162917371E-4+6.883870585536731E-10i
-0.014869739478957915     0                        0.0015                   -3.910688048853973E-5+1.2836423515751905E-5i      -3.461576120777671E-8-1.9743034736021694E-9i      -2.8448837551273295E-4+3.624045703079675E-6i      6.0263092594023014E-5-2.562690051912214E-10i      -8.117867225208451E-8+3.5345215948575335E-13i     -1.6596124639473876E-4+6.978101653263046E-10i
-0.014789579158316633     0                        0.0015                   -3.972752192788148E-5+1.2994246312793408E-5i      -8.264008981093824E-8-2.6158727369455183E-9i      -2.875953383974503E-4+3.529235776411127E-6i       6.205465392163627E-5-2.638842173364353E-10i       -1.258008755370744E-7+5.440111416033438E-13i      -1.685966985401595E-4+7.086670243535532E-10i
-0.014709418837675351     0                        0.0015                   -4.034816336722421E-5+1.3152069109835024E-5i      -1.3066441841380838E-7-3.257442000279338E-9i      -2.907023012821624E-4+3.4344258497426062E-6i      6.384621524924686E-5-2.7149942948164095E-10i      -1.7042307882224385E-7+7.345701237178065E-13i     -1.7123215068558196E-4+7.195238833807919E-10i
-0.014629258517034067     0                        0.0015                   -4.09688048065678E-5+1.3309891906876563E-5i       -1.7868874701576712E-7-3.899011263649369E-9i      -2.9380926416687774E-4+3.3396159230740023E-6i     6.563777657685979E-5-2.7911464162685155E-10i      -2.1504528210723712E-7+9.251291058351772E-13i     -1.7386760283100305E-4+7.303807424080341E-10i
-0.014549098196392786     0                        0.0015                   -4.1589446245906056E-5+1.3467714703918038E-5i     -2.2671307561811889E-7-4.540580526978953E-9i      -2.969162270515947E-4+3.2448059964054535E-6i      6.742933790447263E-5-2.8672985377206607E-10i      -2.596674853923083E-7+1.115688087950635E-12i      -1.7650305497642706E-4+7.412376014352827E-10i
-0.014468937875751504     0                        0.0015                   -4.221008768525184E-5+1.3625537500959732E-5i      -2.747374042225137E-7-5.182149790246069E-9i       -3.0002318993631067E-4+3.149996069736864E-6i      6.922089923208451E-5-2.9434506591726974E-10i      -3.042896886778471E-7+1.3062470700677602E-12i     -1.791385071218469E-4+7.520944604625214E-10i
-0.01438877755511022      0                        0.0015                   -4.283072912459607E-5+1.3783360298001381E-5i      -3.2276173282452325E-7-5.823719053626688E-9i      -3.031301528210185E-4+3.055186143068127E-6i       7.101246055969535E-5-3.019602780624792E-10i       -3.4891189196249815E-7+1.4968060521834378E-12i    -1.8177395926726586E-4+7.629513194897701E-10i
-0.014308617234468936     0                        0.0015                   -4.396372811124767E-5+1.3914880096604118E-5i      6.975446607670327E-7+4.857006364689196E-8i        -3.065345624798316E-4+2.945915251278974E-6i       7.25365221702968E-5-3.084500952797581E-10i        2.9831541119382937E-7-1.269387551174302E-12i      -1.8422884586163576E-4+7.729144565712003E-10i
-0.014228456913827656     0                        0.0015                   -4.441752454494973E-5+1.4090280211790236E-5i      7.593066113642521E-7+3.311121932246617E-8i        -3.09723718581839E-4+2.8509822160225067E-6i       7.473924715414295E-5-3.1781020249263167E-10i      6.469444352279197E-8-2.820274191154964E-13i       -1.8676127037865558E-4+7.832935038071223E-10i
-0.014148296593186373     0                        0.0015                   -4.487132097864485E-5+1.4265680326976002E-5i      8.210685619632063E-7+1.7652374997769327E-8i       -3.129128746838395E-4+2.7560491807658767E-6i      7.694197213799258E-5-3.271703097055317E-10i       -1.689265241421739E-7+7.053327129565441E-13i      -1.8929369489567214E-4+7.93672551043041E-10i
-0.014068136272545089     0                        0.0015                   -4.532511741234344E-5+1.4441080442161903E-5i      8.828305125656299E-7+2.193530673126696E-9i        -3.1610203078584476E-4+2.6611161455094093E-6i     7.91446971218409E-5-3.3653041691841854E-10i       -4.0254749181494603E-7+1.6926928450153496E-12i    -1.9182611941269282E-4+8.040515982789713E-10i
-0.013987975951903807     0                        0.0015                   -4.5820902274202636E-5+1.4651523688914302E-5i     1.5991354106754258E-6+1.349911331879959E-7i       -3.217120271552911E-4+2.3927658460055703E-6i      8.119185467501304E-5-3.452219297907546E-10i       9.553942171740618E-7-4.0565228012114635E-12i      -1.9867983734914992E-4+8.327455381156064E-10i
-0.013907815631262525     0                        0.0015                   -4.8052717488120816E-5+1.4738067243020756E-5i     5.05097337510918E-7+5.205738579355107E-8i         -3.221902358823953E-4+2.455276965481346E-6i       8.0851596878546E-5-3.4387176780034803E-10i        -6.375244251590612E-7+2.765602029322533E-12i      -1.9562520426575774E-4+8.195472901052688E-10i
-0.013827655310621242     0                        0.0015                   -4.8503018737654745E-5+1.4932852206595845E-5i     4.265059769734125E-7+4.492808034449718E-8i        -3.260176339797584E-4+2.3327799034325047E-6i      8.400411984161313E-5-3.572527513797132E-10i       -6.433979254172675E-7+2.7830402418451086E-12i     -1.9898572171974966E-4+8.333284805210926E-10i