% Model:              FEA.mph
% Version:            COMSOL 6.0.0.318
% Date:               Jul 31 2022, 00:26
% Dimension:          3
% Nodes:              500
% Expressions:        3
% Description:        Magnetic flux density, x component, Magnetic flux density, y component, Magnetic flux density, z component
% Length unit:        m
% x                       y                        z                        mf.Bx (T) @ freq=500, Material Switch 1=Air       mf.By (T) @ freq=500, Material Switch 1=Air       mf.Bz (T) @ freq=500, Material Switch 1=Air
-0.02                     0                        0.0015                   9.845702119835916E-6-4.1372009907947146E-11i      1.112917727249987E-7-4.54684939597429E-13i        -7.794529332522414E-5+3.351565667553629E-10i
-0.019919839679358717     0                        0.0015                   1.010049761442013E-5-4.244176975103638E-11i       5.443904348460208E-8-2.0891484036413804E-13i      -7.894614789033085E-5+3.392958126087525E-10i
-0.019839679358717437     0                        0.0015                   1.035529310900465E-5-4.351152959412683E-11i       -2.4136857558894028E-9+3.68552588691529E-14i      -7.994700245543698E-5+3.4343505846214047E-10i
-0.019759519038076153     0                        0.0015                   1.0610088603588542E-5-4.458128943721487E-11i      -5.9266414996326676E-8+2.8262535810228875E-13i    -8.094785702054307E-5+3.475743043155278E-10i
-0.01967935871743487      0                        0.0015                   1.0864884098172907E-5-4.565104928030488E-11i      -1.1611914423673684E-7+5.283954573355797E-13i     -8.194871158564938E-5+3.517135501689163E-10i
-0.01959919839679359      0                        0.0015                   1.1119679592757111E-5-4.67208091233945E-11i       -1.729718734771199E-7+7.741655565687672E-13i      -8.294956615075548E-5+3.5585279602230426E-10i
-0.019519038076152306     0                        0.0015                   1.1374475087341646E-5-4.779056896648493E-11i      -2.2982460271750297E-7+1.0199356558021616E-12i    -8.395042071586165E-5+3.599920418756917E-10i
-0.019438877755511022     0                        0.0015                   1.1629270581925789E-5-4.886032880957394E-11i      -2.8667733195804866E-7+1.2657057550356593E-12i    -8.49512752809681E-5+3.6413128772908163E-10i
-0.01935871743486974      0                        0.0015                   1.1884066076510115E-5-4.9930088652663754E-11i     -3.435300611983233E-7+1.5114758542682782E-12i     -8.595212984607417E-5+3.6827053358246836E-10i
-0.01927855711422846      0                        0.0015                   1.213886157109417E-5-5.099984849575327E-11i       -4.0038279043885544E-7+1.7572459535017242E-12i    -8.695298441118064E-5+3.7240977943585653E-10i
-0.019198396793587175     0                        0.0015                   1.2393657065678473E-5-5.206960833884235E-11i      -4.5723551967917074E-7+2.0030160527349635E-12i    -8.795383897628673E-5+3.765490252892453E-10i
-0.01911823647294589      0                        0.0015                   1.2648452560262612E-5-5.3139368181931274E-11i     -5.140882489196555E-7+2.2487861519680993E-12i     -8.895469354139306E-5+3.806882711426333E-10i
-0.01903807615230461      0                        0.0015                   1.2903248054846718E-5-5.420912802502007E-11i      -5.709409781599708E-7+2.494556251201416E-12i      -8.995554810649929E-5+3.848275169960202E-10i
-0.018957915831663327     0                        0.0015                   1.3158043549430946E-5-5.527888786810938E-11i      -6.277937074005164E-7+2.740326350434888E-12i      -9.095640267160538E-5+3.889667628494087E-10i
-0.018877755511022044     0                        0.0015                   1.2627064283592555E-5-5.309535885223847E-11i      6.090495207655743E-7-2.450080205499035E-12i       -9.31130034860859E-5+3.979012983031991E-10i
-0.01879759519038076      0                        0.0015                   1.3304639352263521E-5-5.5995842858675596E-11i     5.221028325629192E-7-2.086522252132339E-12i       -9.398878383792142E-5+4.014646634602681E-10i
-0.01871743486973948      0                        0.0015                   1.398221442093381E-5-5.889632686511045E-11i       4.351561443608604E-7-1.7229642987670907E-12i      -9.486456418975617E-5+4.050280286173341E-10i
-0.018637274549098196     0                        0.0015                   1.4659789489604398E-5-6.179681087154664E-11i      3.4820945615842216E-7-1.359406345401222E-12i      -9.574034454159144E-5+4.085913937744018E-10i
-0.018557114228456913     0                        0.0015                   1.5337364558274877E-5-6.469729487798139E-11i      2.612627679558755E-7-9.958483920351465E-13i       -9.661612489342679E-5+4.1215475893146957E-10i
-0.018476953907815633     0                        0.0015                   1.60149396269453E-5-6.75977788844149E-11i         1.7431607975365408E-7-6.322904386696913E-13i      -9.74919052452619E-5+4.157181240885371E-10i
-0.01839679358717435      0                        0.0015                   1.669251469561608E-5-7.049826289085243E-11i       8.736939155143267E-8-2.6873248530423617E-13i      -9.836768559709734E-5+4.1928148924560616E-10i
-0.018316633266533065     0                        0.0015                   1.737008976428683E-5-7.33987468972878E-11i        4.2270334894021003E-10+9.482546806204616E-14i     -9.924346594893254E-5+4.2284485440267197E-10i
-0.018236472945891785     0                        0.0015                   1.8047664832956888E-5-7.629923090372048E-11i      -8.652398485338962E-8+4.583834214272945E-13i      -1.0011924630076783E-4+4.264082195597412E-10i
-0.0181563126252505       0                        0.0015                   1.872523990162738E-5-7.919971491015636E-11i       -1.7347067305582787E-7+8.219413747933701E-13i     -1.0099502665260309E-4+4.299715847168078E-10i
-0.018076152304609218     0                        0.0015                   1.940281497029828E-5-8.210019891659287E-11i       -2.604173612580493E-7+1.1854993281584116E-12i     -1.018708070044381E-4+4.335349498738748E-10i
-0.017995991983967938     0                        0.0015                   2.0080390038968324E-5-8.500068292302524E-11i      -3.4736404946059595E-7+1.5490572815249007E-12i    -1.027465873562735E-4+4.370983150309433E-10i
-0.017915831663326654     0                        0.0015                   2.075796510763879E-5-8.790116692946236E-11i       -4.343107376628716E-7+1.912615234890356E-12i      -1.0362236770810858E-4+4.406616801880098E-10i
-0.01783567134268537      0                        0.0015                   2.1435540176309594E-5-9.080165093589587E-11i      -5.212574258652014E-7+2.276173188255811E-12i      -1.0449814805994399E-4+4.442250453450781E-10i
-0.017755511022044087     0                        0.0015                   2.2113115244980168E-5-9.37021349423316E-11i       -6.082041140675854E-7+2.6397311416218866E-12i     -1.0537392841177906E-4+4.477884105021453E-10i
-0.017675350701402807     0                        0.0015                   2.2790690313650715E-5-9.660261894876717E-11i      -6.951508022699695E-7+3.0032890949875485E-12i     -1.0624970876361441E-4+4.5135177565921254E-10i
-0.017595190380761523     0                        0.0015                   2.3468265382321166E-5-9.950310295520295E-11i      -7.820974904723806E-7+3.366847048353624E-12i      -1.0712548911544941E-4+4.549151408162803E-10i
-0.01751503006012024      0                        0.0015                   2.4145840450991388E-5-1.0240358696163713E-10i     -8.690441786747647E-7+3.730405001719079E-12i      -1.0800126946728484E-4+4.584785059733479E-10i
-0.01743486973947896      0                        0.0015                   2.4823415519662192E-5-1.053040709680726E-10i      -9.559908668770403E-7+4.093962955084948E-12i      -1.0887704981911997E-4+4.6204187113041515E-10i
-0.017354709418837676     0                        0.0015                   2.5500990588332644E-5-1.0820455497450709E-10i     -1.0429375550796412E-6+4.45752090845061E-12i      -1.09752830170955E-4+4.656052362874826E-10i
-0.017274549098196392     0                        0.0015                   2.6178565657003245E-5-1.1110503898094267E-10i     -1.1298842432818897E-6+4.821078861816582E-12i     -1.1062861052279051E-4+4.691686014445512E-10i
-0.01719438877755511      0                        0.0015                   2.685614072567375E-5-1.1400552298737638E-10i      -1.2168309314841111E-6+5.184636815182037E-12i     -1.1150439087462567E-4+4.727319666016184E-10i
-0.01711422845691383      0                        0.0015                   2.7533715794343783E-5-1.1690600699381175E-10i     -1.3037776196864951E-6+5.548194768547389E-12i     -1.1238017122646098E-4+4.762953317586864E-10i
-0.017034068136272545     0                        0.0015                   2.8211290863014844E-5-1.19806491000248E-10i       -1.3907243078888792E-6+5.911752721913258E-12i     -1.1325595157829638E-4+4.798586969157537E-10i
-0.01695390781563126      0                        0.0015                   2.888886593168516E-5-1.227069750066832E-10i       -1.4776709960914394E-6+6.27531067527985E-12i      -1.1413173193013158E-4+4.834220620728212E-10i
-0.01687374749498998      0                        0.0015                   3.156827056572408E-5-1.338912626122594E-10i       2.042730010664079E-7-6.689223643985416E-13i       -1.1895577808832533E-4+5.033028717830836E-10i
-0.016793587174348697     0                        0.0015                   3.223986752649247E-5-1.3675749132673911E-10i      2.347261861799466E-7-7.947745182206479E-13i       -1.2002877587212905E-4+5.076770317597505E-10i
-0.016713426853707414     0                        0.0015                   3.29114644872612E-5-1.3962372004122165E-10i       2.6517937129378686E-7-9.206266720439174E-13i      -1.2110177365593306E-4+5.120511917364175E-10i
-0.016633266533066134     0                        0.0015                   3.3583061448029757E-5-1.4248994875570206E-10i     2.9563255640746447E-7-1.0464788258670835E-12i     -1.2217477143973806E-4+5.164253517130882E-10i
-0.01655310621242485      0                        0.0015                   3.425465840879836E-5-1.4535617747018503E-10i      3.26085741521025E-7-1.1723309796903987E-12i       -1.2324776922354147E-4+5.207995116897534E-10i
-0.016472945891783566     0                        0.0015                   3.49262553695666E-5-1.4822240618466573E-10i       3.56538926634735E-7-1.2981831335139457E-12i       -1.2432076700734645E-4+5.251736716664225E-10i
-0.016392785571142286     0                        0.0015                   3.559785233033527E-5-1.5108863489914816E-10i      3.869921117485278E-7-1.4240352873370084E-12i      -1.253937647911502E-4+5.295478316430892E-10i
-0.016312625250501003     0                        0.0015                   3.696104733174471E-5-1.567489413296388E-10i       -2.323397113290505E-6+1.0084018631973703E-11i     -1.295233386349379E-4+5.466235023044472E-10i
-0.01623246492985972      0                        0.0015                   3.77341910590117E-5-1.6000841692646913E-10i       -2.404884054722141E-6+1.0432685505367755E-11i     -1.320534544748044E-4+5.570610809972709E-10i
-0.01615230460921844      0                        0.0015                   3.8507334786279444E-5-1.6326789252329782E-10i     -2.48637099615396E-6+1.0781352378762893E-11i      -1.3458357031467067E-4+5.67498659690097E-10i
-0.016072144288577155     0                        0.0015                   4.188805373185947E-5-1.781497328266574E-10i       -6.360668028826009E-7+2.5915822763184264E-12i     -1.3243322004767382E-4+5.585798896982599E-10i
-0.01599198396793587      0                        0.0015                   4.2823130704040574E-5-1.8209155579134274E-10i     -5.228351430468193E-7+2.1173606385882047E-12i     -1.3495710386365856E-4+5.689736065068871E-10i
-0.015911823647294588     0                        0.0015                   4.375820767622157E-5-1.8603337875603016E-10i      -4.096034832114714E-7+1.6431390008577762E-12i     -1.3748098767964287E-4+5.793673233155143E-10i
-0.015831663326653308     0                        0.0015                   4.469328464840234E-5-1.8997520172071385E-10i      -2.963718233755814E-7+1.1689173631263138E-12i     -1.4000487149562696E-4+5.89761040124144E-10i
-0.015751503006012024     0                        0.0015                   4.562836162058301E-5-1.939170246853992E-10i       -1.8314016354001664E-7+6.946957253960921E-13i     -1.4252875531161214E-4+6.001547569327712E-10i
-0.01567134268537074      0                        0.0015                   4.656343859276411E-5-1.9785884765008247E-10i      -6.99085037045332E-8+2.2047408766576702E-13i      -1.450526391275958E-4+6.105484737413955E-10i
-0.015591182364729459     0                        0.0015                   4.749851556494489E-5-2.0180067061476947E-10i      4.3323156131180635E-8-2.5374755006528184E-13i     -1.4757652294358032E-4+6.20942190550024E-10i
-0.015511022044088177     0                        0.0015                   4.843359253712512E-5-2.0574249357945275E-10i      1.5655481596673184E-7-7.279691877956715E-13i      -1.501004067595642E-4+6.31335907358651E-10i
-0.015430861723446893     0                        0.0015                   4.9368669509305464E-5-2.09684316544141E-10i       2.697864758024931E-7-1.2021908255264748E-12i      -1.5262429057554856E-4+6.41729624167278E-10i
-0.015350701402805611     0                        0.0015                   5.030374648148678E-5-2.13626139508828E-10i        3.8301813563783424E-7-1.6764124632560503E-12i     -1.5514817439153287E-4+6.521233409759028E-10i
-0.01527054108216433      0                        0.0015                   5.123882345366723E-5-2.175679624735121E-10i       4.962497954736158E-7-2.15063410098834E-12i        -1.5767205820751772E-4+6.625170577845328E-10i
-0.015190380761523046     0                        0.0015                   5.2173900425848225E-5-2.2150978543819786E-10i     6.094814553092077E-7-2.624855738718148E-12i       -1.6019594202350214E-4+6.729107745931584E-10i
-0.015110220440881762     0                        0.0015                   5.310897739802911E-5-2.2545160840288404E-10i      7.227131151447725E-7-3.0990773764498172E-12i      -1.6271982583948634E-4+6.83304491401785E-10i
-0.015030060120240482     0                        0.0015                   5.404405437021043E-5-2.2939343136756814E-10i      8.359447749802288E-7-3.573299014179005E-12i       -1.6524370965547078E-4+6.936982082104116E-10i
-0.014949899799599198     0                        0.0015                   5.497913134239061E-5-2.333352543322539E-10i       9.491764348155225E-7-4.047520651909227E-12i       -1.6776759347145485E-4+7.040919250190402E-10i
-0.014869739478957915     0                        0.0015                   5.591420831457111E-5-2.3727707729693904E-10i      1.0624080946516293E-6-4.521742289641103E-12i      -1.7029147728744008E-4+7.144856418276697E-10i
-0.014789579158316633     0                        0.0015                   5.684928528675167E-5-2.4121890026162294E-10i      1.175639754487194E-6-4.995963927371324E-12i       -1.7281536110342352E-4+7.248793586362924E-10i
-0.014709418837675351     0                        0.0015                   5.778436225893288E-5-2.451607232263112E-10i       1.2888714143229757E-6-5.47018556510196E-12i       -1.753392449194073E-4+7.352730754449171E-10i
-0.014629258517034067     0                        0.0015                   5.871943923111425E-5-2.491025461909988E-10i       1.4021030741585404E-6-5.944407202833422E-12i      -1.7786312873539257E-4+7.456667922535481E-10i
-0.014549098196392786     0                        0.0015                   7.024868027110699E-5-2.976831483413485E-10i       -7.398963598405969E-6+3.100710023820918E-11i      -1.616910773351004E-4+6.772595884291197E-10i
-0.014468937875751504     0                        0.0015                   7.171228595471762E-5-3.038992683778182E-10i       -6.694832431270413E-6+2.803675181589268E-11i      -1.6672748218640558E-4+6.980752809751204E-10i
-0.01438877755511022      0                        0.0015                   7.317589163833172E-5-3.101153884143077E-10i       -5.99070126413399E-6+2.506640339357452E-11i       -1.7176388703770947E-4+7.188909735211112E-10i
-0.014308617234468936     0                        0.0015                   7.463949732194278E-5-3.1633150845078727E-10i      -5.2865700969984344E-6+2.2096054971258017E-11i    -1.7680029188901075E-4+7.39706666067092E-10i
-0.014228456913827656     0                        0.0015                   7.610310300555515E-5-3.2254762848726686E-10i      -4.5824389298620115E-6+1.912570654893986E-11i     -1.818366967403142E-4+7.605223586130894E-10i
-0.014148296593186373     0                        0.0015                   7.756670868916751E-5-3.2876374852374975E-10i      -3.878307762726456E-6+1.6155358126620047E-11i     -1.868731015916181E-4+7.813380511590801E-10i
-0.014068136272545089     0                        0.0015                   7.903031437277771E-5-3.3497986856022603E-10i      -3.1741765955895992E-6+1.3185009704301888E-11i    -1.919095064429211E-4+8.021537437050676E-10i
-0.013987975951903807     0                        0.0015                   8.049392005639051E-5-3.411959885967056E-10i       -2.47004542845361E-6+1.0214661281985385E-11i      -1.969459112942263E-4+8.229694362510683E-10i
-0.013907815631262525     0                        0.0015                   8.195752574000157E-5-3.474121086331852E-10i       -1.7659142613180544E-6+7.244312859665572E-12i     -2.0198231614552932E-4+8.437851287970557E-10i
-0.013827655310621242     0                        0.0015                   8.342113142361437E-5-3.536282286696714E-10i       -1.0617830941814146E-6+4.2739644373490685E-12i    -2.0701872099683017E-4+8.646008213430465E-10i
-0.01374749498997996      0                        0.0015                   7.941378280954892E-5-3.368817791178804E-10i       1.5770572388531991E-6-6.504318984758366E-12i      -2.1623427089566966E-4+9.031568636730633E-10i
-0.013667334669338678     0                        0.0015                   8.23842141034958E-5-3.4950359899988445E-10i       1.17854153628273E-6-4.82689990521122E-12i         -2.1939243462421672E-4+9.16009600395367E-10i
-0.013587174348697394     0                        0.0015                   8.535464539744311E-5-3.6212541888188687E-10i      7.800258337122608E-7-3.149480825663247E-12i       -2.2255059835276422E-4+9.288623371176715E-10i
-0.01350701402805611      0                        0.0015                   8.83250766913926E-5-3.7474723876389757E-10i       3.815101311416833E-7-1.4720617461150674E-12i      -2.2570876208131106E-4+9.41715073839971E-10i
-0.01342685370741483      0                        0.0015                   9.129550798533991E-5-3.873690586459E-10i          -1.700557142911112E-8+2.0535733343228514E-13i     -2.2886692580985878E-4+9.545678105622788E-10i
-0.013346693386773547     0                        0.0015                   9.426593927928896E-5-3.9999087852791565E-10i      -4.15521273999255E-7+1.8827764129796377E-12i      -2.320250895384067E-4+9.674205472845841E-10i
-0.013266533066132263     0                        0.0015                   9.723637057323757E-5-4.126126984099197E-10i       -8.140369765698326E-7+3.5601954925265766E-12i     -2.351832532669553E-4+9.802732840068936E-10i
-0.013186372745490981     0                        0.0015                   1.0020680186718749E-4-4.252345182919337E-10i      -1.2125526791408438E-6+5.237614572076411E-12i     -2.3834141699550083E-4+9.93126020729189E-10i
-0.0131062124248497       0                        0.0015                   1.031772331611335E-4-4.378563381739312E-10i       -1.6110683817112045E-6+6.915033651621282E-12i     -2.414995807240492E-4+1.0059787574514951E-9i
-0.013026052104208416     0                        0.0015                   1.0614766445508276E-4-4.504781580559419E-10i      -2.00958408428124E-6+8.592452731168634E-12i       -2.446577444525965E-4+1.0188314941737988E-9i
-0.012945891783567134     0                        0.0015                   1.033100857361904E-4-4.384141497954821E-10i       1.617980211177832E-6-6.61676011360681E-12i        -2.531076365297638E-4+1.0540443210528169E-9i
-0.012865731462925852     0                        0.0015                   1.0810104255441202E-4-4.586714926167187E-10i      1.3815240245833348E-6-5.610134549352236E-12i      -2.548929494279328E-4+1.0611277518937429E-9i
-0.012785571142284569     0                        0.0015                   1.1289199937263169E-4-4.789288354379388E-10i      1.1450678379888377E-6-4.603508985102211E-12i      -2.566782623261005E-4+1.0682111827346689E-9i
-0.012705410821643285     0                        0.0015                   1.1768295619085179E-4-4.991861782591605E-10i      9.086116513937984E-7-3.596883420847843E-12i       -2.58463575224271E-4+1.0752946135756048E-9i
-0.012625250501002005     0                        0.0015                   1.2247391300907124E-4-5.194435210803955E-10i      6.721554647989218E-7-2.5902578565924416E-12i      -2.602488881224398E-4+1.0823780444165358E-9i
-0.012545090180360721     0                        0.0015                   1.2726486982729134E-4-5.397008639016213E-10i      4.356992782040452E-7-1.5836322923401418E-12i      -2.62034201020609E-4+1.0894614752574642E-9i
-0.012464929859719438     0                        0.0015                   1.3205582664551274E-4-5.599582067228513E-10i      1.99243091609277E-7-5.77006728085981E-13i         -2.638195139187782E-4+1.0965449060983927E-9i
-0.012384769539078156     0                        0.0015                   1.368467834637348E-4-5.802155495440871E-10i       -3.7213094985274336E-8+4.296188361652848E-13i     -2.656048268169463E-4+1.1036283369393228E-9i
-0.012304609218436874     0                        0.0015                   1.4163774028195207E-4-6.004728923653039E-10i      -2.7366928157971726E-7+1.436244400418515E-12i     -2.673901397151168E-4+1.1107117677802588E-9i
-0.01222444889779559      0                        0.0015                   1.464286971001739E-4-6.207302351865364E-10i       -5.101254681748649E-7+2.442869964671952E-12i      -2.691754526132843E-4+1.1177951986211823E-9i
-0.012144288577154308     0                        0.0015                   1.512196539183913E-4-6.409875780077531E-10i       -7.465816547693756E-7+3.4494955289246138E-12i     -2.709607655114535E-4+1.12487862946211E-9i
-0.012064128256513026     0                        0.0015                   1.5601061073661367E-4-6.612449208289922E-10i      -9.830378413641574E-7+4.456121093178258E-12i      -2.7274607840962204E-4+1.1319620603030417E-9i
-0.011983967935871743     0                        0.0015                   1.608015675548327E-4-6.815022636502181E-10i       -1.2194940279587866E-6+5.462746657431346E-12i     -2.7453139130779124E-4+1.1390454911439702E-9i
-0.011903807615230461     0                        0.0015                   1.655925243730529E-4-7.01759606471441E-10i        -1.4559502145533888E-6+6.469372221684124E-12i     -2.763167042059609E-4+1.1461289219849028E-9i
-0.011823647294589177     0                        0.0015                   1.7038348119127476E-4-7.220169492926729E-10i      -1.692406401148096E-6+7.47599778593645E-12i       -2.781020171041303E-4+1.1532123528258321E-9i
-0.011743486973947895     0                        0.0015                   1.751744380094944E-4-7.422742921139003E-10i       -1.9288625877430675E-6+8.482623350191127E-12i     -2.798873300022982E-4+1.1602957836667639E-9i
-0.011663326653306614     0                        0.0015                   1.7996539482771417E-4-7.625316349351248E-10i      -2.1653187743372394E-6+9.489248914441462E-12i     -2.81672642900467E-4+1.1673792145076899E-9i
-0.01158316633266533      0                        0.0015                   1.8475635164593316E-4-7.827889777563532E-10i      -2.4017749609322786E-6+1.0495874478695313E-11i    -2.8345795579863705E-4+1.1744626453486242E-9i
-0.011503006012024048     0                        0.0015                   1.8954730846415573E-4-8.030463205775892E-10i      -2.6382311475271823E-6+1.1502500042948233E-11i    -2.852432686968067E-4+1.1815460761895526E-9i
-0.011422845691382764     0                        0.0015                   1.974323853180483E-4-8.364522430010874E-10i       6.246466389076347E-7-3.139980580175347E-12i       -2.991256204703525E-4+1.2384417653170641E-9i
-0.011342685370741483     0                        0.0015                   2.0629210347409372E-4-8.739331288320245E-10i      8.042165665615329E-7-3.784646400499985E-12i       -3.0890498259869906E-4+1.2787638803858836E-9i
-0.0112625250501002       0                        0.0015                   2.151518216301398E-4-9.11414014662957E-10i        9.83786494215648E-7-4.429312220828345E-12i        -3.186843447270486E-4+1.319085995454713E-9i
-0.011182364729458917     0                        0.0015                   2.240115397861833E-4-9.488949004938875E-10i       1.1633564218698714E-6-5.073978041158359E-12i      -3.2846370685539906E-4+1.3594081105235408E-9i
-0.011102204408817635     0                        0.0015                   2.3287125794222785E-4-9.863757863248197E-10i      1.3429263495234444E-6-5.718643861485892E-12i      -3.38243068983746E-4+1.399730225592357E-9i
-0.011022044088176352     0                        0.0015                   2.4173097609827372E-4-1.023856672155756E-9i       1.522496277178752E-6-6.363309681816734E-12i       -3.4802243111209386E-4+1.4400523406611782E-9i
-0.01094188376753507      0                        0.0015                   2.50590694254317E-4-1.0613375579866848E-9i        1.7020662048329756E-6-7.007975502150057E-12i      -3.578017932404469E-4+1.4803744557300192E-9i
-0.010861723446893788     0                        0.0015                   2.594504124103624E-4-1.098818443817622E-9i        1.8816361324865485E-6-7.652641322476763E-12i      -3.675811553687947E-4+1.5206965707988354E-9i
-0.010781563126252504     0                        0.0015                   2.683101305664074E-4-1.1362993296485525E-9i       2.0612060601414225E-6-8.297307142805123E-12i      -3.773605174971421E-4+1.5610186858676532E-9i
-0.010701402805611222     0                        0.0015                   2.7716984872245285E-4-1.1737802154794863E-9i      2.2407759877949955E-6-8.941972963133483E-12i      -3.8713987962548995E-4+1.6013408009364744E-9i
-0.010621242484969939     0                        0.0015                   2.860295668784957E-4-1.2112611013104151E-9i       2.420345915449436E-6-9.586638783461843E-12i       -3.9691924175384126E-4+1.6416629160053104E-9i
-0.010541082164328657     0                        0.0015                   2.948892850345407E-4-1.248741987141349E-9i        2.5999158431034425E-6-1.0231304603791857E-11i     -4.066986038821891E-4+1.681985031074125E-9i
-0.010460921843687375     0                        0.0015                   3.037490031905874E-4-1.2862228729722828E-9i       2.779485770757449E-6-1.0875970424121872E-11i      -4.164779660105378E-4+1.722307146142951E-9i
-0.010380761523046091     0                        0.0015                   3.12608721346635E-4-1.3237037588032298E-9i        2.9590556984118895E-6-1.1520636244450232E-11i     -4.2625732813888605E-4+1.7626292612117838E-9i
-0.01030060120240481      0                        0.0015                   3.2146843950267654E-4-1.3611846446341537E-9i      3.1386256260667635E-6-1.2165302064783555E-11i     -4.360366902672352E-4+1.8029513762805917E-9i
-0.010220440881763526     0                        0.0015                   3.3032815765872154E-4-1.3986655304650842E-9i      3.3181955537203364E-6-1.2809967885106952E-11i     -4.458160523955817E-4+1.8432734913494244E-9i
-0.010140280561122244     0                        0.0015                   3.299366713359138E-4-1.4002445508918053E-9i       -7.958169437214876E-6+3.2953782262487723E-11i     -4.642313743999113E-4+1.916212193602152E-9i
-0.010060120240480962     0                        0.0015                   3.454018524206141E-4-1.465390879410261E-9i        -7.067175060662288E-6+2.921662548379125E-11i      -4.6459535996134886E-4+1.9166468035424256E-9i
-0.009979959919839678     0                        0.0015                   3.6086703350531523E-4-1.5305372079287085E-9i      -6.176180684108832E-6+2.5479468705084853E-11i     -4.64959345522786E-4+1.9170814134826976E-9i
-0.009899799599198397     0                        0.0015                   3.763322145900177E-4-1.5956835364471692E-9i       -5.28518630755646E-6+2.1742311926384245E-11i      -4.653233310842242E-4+1.917516023422972E-9i
-0.009819639278557113     0                        0.0015                   3.9179739567471754E-4-1.6608298649656233E-9i      -4.394191931002137E-6+1.8005155147681982E-11i     -4.656873166456615E-4+1.9179506333632486E-9i
-0.009739478957915831     0                        0.0015                   4.0726257675941695E-4-1.7259761934840807E-9i      -3.503197554450199E-6+1.4267998368982201E-11i     -4.66051302207101E-4+1.9183852433035244E-9i
-0.00965931863727455      0                        0.0015                   4.2272775784411637E-4-1.7911225220025265E-9i      -2.6122031778973934E-6+1.0530841590281593E-11i    -4.664152877685389E-4+1.9188198532438E-9i
-0.009579158316633266     0                        0.0015                   4.3819293892881535E-4-1.8562688505209806E-9i      -1.7212088013439375E-6+6.7936848115785036E-12i    -4.667792733299749E-4+1.919254463184072E-9i
-0.009498997995991984     0                        0.0015                   4.5365812001351476E-4-1.9214151790394313E-9i      -8.302144247909152E-7+3.0565280328729324E-12i     -4.671432588914142E-4+1.9196890731243487E-9i
-0.0094188376753507       0                        0.0015                   4.691233010982133E-4-1.9865615075578805E-9i       6.077995176189017E-8-6.806287458231262E-13i       -4.675072444528521E-4+1.9201236830646223E-9i