% Model:              FEA.mph
% Version:            COMSOL 6.0.0.318
% Date:               Jul 31 2022, 00:26
% Dimension:          3
% Nodes:              100
% Expressions:        3
% Description:        Current density, x component, Current density, y component, Current density, z component
% Length unit:        m
% x                       y                        z                        mf.Jx (A/m^2) @ freq=500, Material Switch 1=Stainless Steel mf.Jy (A/m^2) @ freq=500, Material Switch 1=Stainless Steel mf.Jz (A/m^2) @ freq=500, Material Switch 1=Stainless Steel
0                         0                        -0.0015                  171.60489194055688-137.61896969517656i            35.14587842768592-34.2704723467467i               -41.550777066030406+4.9767614455212605i
2.0202020202020202E-4     0                        -0.0015                  186.55741199610074-126.20951147217308i            -916.031540428693-1097.2098071535759i             11.045928276577792-24.35850312718218i
4.0404040404040404E-4     0                        -0.0015                  201.50993205164454-114.80005324916809i            -1867.3497700081373-2160.65151943351i             71.10757632085331-57.022602485398764i
6.060606060606061E-4      0                        -0.0015                  216.46245210718885-103.39059502616244i            -2818.8088103106497-3224.595609186546i            138.63416706679604-93.01553662912892i
8.080808080808081E-4      0                        -0.0015                  231.41497216273262-91.98113680315889i             -3770.4086613362324-4289.042076412686i            213.6257005144066-132.33730555837226i
0.00101010101010101       0                        -0.0015                  -31.022146795879785+130.60426859204665i           -3931.536608812669-5663.572903094435i             367.9939175094475-279.35810411896944i
0.0012121212121212121     0                        -0.0015                  7.275979333422254+89.37991984264936i              -4584.156404587326-6831.5112923698525i            387.47485125707925-292.282963777065i
0.0014141414141414141     0                        -0.0015                  45.57410546272613+48.15557109325644i              -5253.220098022741-7931.659748304943i             415.36411384083175-306.7083329923811i
0.0016161616161616162     0                        -0.0015                  83.8722315920293+6.931222343860103i               -5938.727689118926-8964.018270899734i             451.66170526070664-322.6342117649158i
0.0018181818181818182     0                        -0.0015                  122.17035772133184-34.2931264055366i              -6640.679177875883-9928.58686015421i              496.367625516704-340.0606000946664i
0.00202020202020202       0                        -0.0015                  484.7085893179186-60.441868587494824i             -6950.611981251323-10794.788751141585i            9.844589188408015-357.75931934169057i
0.0022222222222222222     0                        -0.0015                  494.7502058110305-125.88982404090245i             -7681.189183287334-11645.241094609997i            -144.44800241443258-261.44534980033944i
0.0024242424242424242     0                        -0.0015                  504.7918223041439-191.33777949430925i             -8418.198849177561-12470.665064891165i            -319.2987488045892-146.55681227757384i
0.0026262626262626263     0                        -0.0015                  514.8334387972563-256.78573494771655i             -9161.640978921994-13271.060661985082i            -514.7076499820437-13.093706773371913i
0.0028282828282828283     0                        -0.0015                  661.21393888822+328.47106349583095i               -10671.492138908998-14646.994554582743i           -1979.023158892059-239.5868538744682i
0.0030303030303030303     0                        -0.0015                  -256.4717002465828-317.80511245872384i            -9847.215343953625-14458.14222710616i             -602.8537681697511+824.21433992226i
0.0032323232323232323     0                        -0.0015                  -214.13585116609917-298.41809934909224i           -10282.830670537925-15193.028811697093i           -590.57153135861+816.2322137110297i
0.0034343434343434343     0                        -0.0015                  -171.8000020856181-279.03108623946264i            -10648.245355834755-15890.109071646868i           -595.0796649303506+805.2476811228742i
0.0036363636363636364     0                        -0.0015                  -129.4641530051354-259.64407312983116i            -10943.45939984411-16549.38300695546i             -616.3781688849743+791.2607421578007i
0.0038383838383838384     0                        -0.0015                  -87.1283039246529-240.25706002020033i             -11168.472802565988-17170.850617622855i           -654.46704322248+774.2713968158074i
0.00404040404040404       0                        -0.0015                  -44.79245484417176-220.8700469105707i             -11323.285564000396-17754.51190364909i            -709.3462879428686+754.2796450968913i
0.004242424242424242      0                        -0.0015                  -2.4566057636877123-201.4830338009372i            -11407.897684147325-18300.36686503413i            -781.0159030461353+731.2854870010572i
0.0044444444444444444     0                        -0.0015                  -37.16392635808817-225.93726214323166i            -11434.080091362584-18798.772467378072i           -863.5674092052762+708.5996509729077i
0.004646464646464647      0                        -0.0015                  -14.470942130430368-225.89641350069036i           -11667.82711012087-18942.7413943962i              -869.4361377723524+730.3056757928521i
0.0048484848484848485     0                        -0.0015                  8.22204209722478-225.8555648581527i               -11900.796980400433-19086.036009808562i           -879.258605233075+747.4011975787724i
0.00505050505050505       0                        -0.0015                  30.915026324879204-225.81471621561974i            -12132.989702201268-19228.65631361518i            -893.0348115874474+759.8862163306696i
0.0052525252525252525     0                        -0.0015                  53.60801055253653-225.77386757308298i             -12364.405275523388-19370.602305816057i           -910.7647568354629+767.7607320485465i
0.005454545454545455      0                        -0.0015                  76.30099478018987-225.73301893054872i             -12595.04370036678-19511.87398641117i             -932.4484409771246+771.0247447323977i
0.0056565656565656566     0                        -0.0015                  98.99397900784406-225.69217028801182i             -12824.904976731454-19652.471355400525i           -958.0858640124274+769.6782543822359i
0.005858585858585858      0                        -0.0015                  330.7304522086844-142.904231703772i               -12689.54327294615-19714.284936519598i            -447.57851130321836+657.9062685471906i
0.006060606060606061      0                        -0.0015                  366.7496436051698+64.9746044073658i               -12673.049010469302-19645.621467884514i           342.60129722236474+289.1006882703894i
0.006262626262626263      0                        -0.0015                  -688.4665180490841+522.1129369198774i             -12525.670896071357-19541.151185017243i           -241.3054225448896+345.9539702450066i
0.006464646464646465      0                        -0.0015                  -583.6278714398718+438.6573191912071i             -12311.441063247457-19258.604587427206i           -67.60687812703605+202.30113858486655i
0.006666666666666666      0                        -0.0015                  -478.7892248306574+355.20170146253156i            -12095.650891356014-18811.586245071103i           106.81334284590216+56.76484689804402i
0.006868686868686869      0                        -0.0015                  -373.9505782214455+271.7460837338618i             -11878.30038039704-18200.096157949036i            281.9552403739205-90.65490481545194i
0.007070707070707071      0                        -0.0015                  -269.1119316122314+188.2904660051887i             -11659.389530370525-17424.134326060925i           457.8188144570219-239.95811655563776i
0.007272727272727273      0                        -0.0015                  -164.27328500301857+104.83484827651833i           -11438.918341276472-16483.700749406813i           634.4040650952056-391.144788322495i
0.007474747474747474      0                        -0.0015                  -59.434638393805166+21.37923054784796i            -11216.88681311489-15378.795427986703i            811.7109922884713-544.2149201160337i
0.007676767676767677      0                        -0.0015                  492.32707115471686-1434.8467630401954i            -10397.737695459975-15891.992758461727i           729.7128365597947-405.15423000042654i
0.00787878787878788       0                        -0.0015                  207.07868156930715-438.6338108394662i             -10221.237497404836-15453.745740018616i           261.2061581326971+450.4703434675961i
0.00808080808080808       0                        -0.0015                  71.70363621493198-358.4087788632507i              -9948.470595756946-15061.989953938204i            611.0854655140688+452.28821689335723i
0.008282828282828282      0                        -0.0015                  -268.1241608688694-125.28062888594951i            -9218.854921333928-14915.238882880893i            626.376569204515+415.68573345079056i
0.008484848484848484      0                        -0.0015                  -229.0236431555382-104.30325884742588i            -9096.459137294623-14425.333521205856i            580.1543660046667+396.2682030096637i
0.008686868686868687      0                        -0.0015                  -189.9231254422059-83.32588880889928i             -8973.634980419507-13937.71526147054i             532.0165901490279+376.60089333077656i
0.008888888888888889      0                        -0.0015                  -150.82260772887605-62.3485187703793i             -8850.382450708585-13452.384103674969i            481.96324163760283+356.6838044141356i
0.00909090909090909       0                        -0.0015                  -111.72209001554548-41.3711487318561i             -8726.70154816185-12969.340047819092i             429.994320470387+336.51693625973473i
0.009292929292929294      0                        -0.0015                  -72.62157230221405-20.393778693333523i            -8602.592272779311-12488.583093902962i            376.1098266473819+316.1002888675741i
0.009494949494949495      0                        -0.0015                  -33.52105458888157+0.5835913451946285i            -8478.054624560958-12010.113241926521i            320.3097601685895+295.4338622376607i
0.009696969696969697      0                        -0.0015                  5.57946312444761+21.560961383715004i              -8353.088603506803-11533.930491889836i            262.59412103400905+274.51765636998573i
0.009898989898989899      0                        -0.0015                  44.6799808377804+42.53833142224195i               -8227.694209616833-11060.034843792837i            202.96290924363922+253.3516712645543i
0.0101010101010101        0                        -0.0015                  474.0226160934009+682.958401453215i               -8006.587248649059-10714.88029918679i             -636.6561267505789-668.7061191792898i
0.010303030303030303      0                        -0.0015                  391.33663791421765+513.3889611531936i             -7781.788691146036-10381.225642473379i            -795.4787255530016-476.3772628365551i
0.010505050505050505      0                        -0.0015                  308.65065973504016+343.8195208531831i             -7554.538641064879-10044.445001763426i            -959.5684222976716-274.3904568112541i
0.010707070707070707      0                        -0.0015                  225.96468155585637+174.2500805531606i             -7324.837098405569-9704.538377056884i             -1128.9252169846056-62.74570110337509i
0.01090909090909091       0                        -0.0015                  143.27870337667548+4.680640253141187i             -7092.684063168117-9361.50576835378i              -1303.5491096137973+158.5570042870741i
0.011111111111111112      0                        -0.0015                  60.59272519749541-164.888800046877i               -6858.079535352519-9015.347175654111i             -1483.4401001852455+389.5176593600983i
0.011313131313131313      0                        -0.0015                  -22.093252981684454-334.45824034689116i           -6621.023514958785-8666.062598957882i             -1668.598188698943+630.1362641156957i
0.011515151515151515      0                        -0.0015                  -104.77923116086322-504.02768064690963i           -6381.516001986897-8313.65203826507i              -1859.023375154907+880.4128185538641i
0.011717171717171716      0                        -0.0015                  -187.46520934004693-673.5971209469317i            -6139.556996436869-7958.115493575699i             -2054.715659553126+1140.347322674602i
0.01191919191919192       0                        -0.0015                  -270.1511875192245-843.1665612469448i             -5895.146498308702-7599.452964889778i             -2255.675041893594+1409.9397764779123i
0.012121212121212121      0                        -0.0015                  392.5218449645737-747.0104074370022i              -5725.074157898394-7264.380480954419i             -2354.146644325597+1582.641402566522i
0.012323232323232323      0                        -0.0015                  83.25374040659868-529.5154991389184i              -5080.158431396572-7344.569349549493i             -1538.978405767652+1113.433058115584i
0.012525252525252526      0                        -0.0015                  75.61865481647455-478.28512108780546i             -4964.118311928563-7135.618924217107i             -1492.2036786112528+1070.3226586302028i
0.012727272727272728      0                        -0.0015                  67.98356922635135-427.05474303669126i             -4849.321670971676-6927.452341032784i             -1439.6531672840906+1024.4432111202475i
0.01292929292929293       0                        -0.0015                  60.34848363622951-375.82436498557985i             -4735.768508525919-6720.069599996538i             -1381.3268717861745+975.7947155857262i
0.013131313131313131      0                        -0.0015                  52.71339804610717-324.5939869344651i              -4623.4588245912755-6513.470701108338i            -1317.224792117499+924.3771720266354i
0.013333333333333332      0                        -0.0015                  45.07831245598472-273.3636088833518i              -4512.392619167755-6307.6556443682i               -1247.3469282780638+870.1905804429744i
0.013535353535353536      0                        -0.0015                  37.44322686586203-222.13323083223798i             -4402.569892255355-6102.624429776119i             -1171.693280267868+813.2349408347424i
0.013737373737373737      0                        -0.0015                  29.808141275739214-170.90285278112418i            -4293.990643854074-5898.377057332094i             -1090.2638480869125+753.5102532019401i
0.013939393939393939      0                        -0.0015                  22.173055685616518-119.6724747300128i             -4186.654873963917-5694.913527036135i             -1003.0586317352015+691.0165175445693i
0.014141414141414142      0                        -0.0015                  14.537970095493822-68.44209667889731i             -4080.562582584875-5492.233838888223i             -910.0776312127284+625.7537338626263i
0.014343434343434344      0                        -0.0015                  6.902884505371729-17.21171862778497i              -3975.713769716961-5290.337992888378i             -811.3208465194982+557.7219021561149i
0.014545454545454545      0                        -0.0015                  -0.7322010847505458+34.01865942332714i            -3872.1084353601677-5089.225989036598i            -706.7882776555115+486.9210224250352i
0.014747474747474747      0                        -0.0015                  -8.367286674873423+85.24903747444033i             -3769.7465795144917-4888.897827332867i            -596.479924620762+413.35109466938377i
0.014949494949494949      0                        -0.0015                  -16.00237226499618+136.4794155255517i             -3668.62820217994-4689.353507777199i              -480.3957874152567+337.012118889163i
0.015151515151515152      0                        -0.0015                  -23.637457855118697+187.70979357666863i           -3568.753303356502-4490.593030369572i             -358.5358660389851+257.90409508436863i
0.015353535353535354      0                        -0.0015                  -31.272543445241205+238.94017162778127i           -3470.12188304419-4292.6163951100225i             -230.90016049196205+176.02702325500866i
0.015555555555555555      0                        -0.0015                  -38.90762903536408+290.1705496788939i             -3372.7339412429997-4095.4236019985274i           -97.48867077417762+91.38090340107746i
0.01575757575757576       0                        -0.0015                  -46.54271462548605+341.4009277300075i             -3276.589477952928-3899.014651035091i             41.698603114365405+3.965735522576068i
0.01595959595959596       0                        -0.0015                  -54.177800215608634+392.6313057811205i            -3181.6884931739796-3703.3895422197156i           186.6616611736658-86.21848038049366i
0.01616161616161616       0                        -0.0015                  167.80563467018735-106.66330451821788i            -2850.1966586687477-3697.6132927890985i           250.67820534891865-140.30765116268975i
0.016363636363636365      0                        -0.0015                  145.14535237939324-91.75317079118066i             -2798.810457439426-3658.5771121145835i            218.67547694368133-130.32185835486013i
0.016565656565656565      0                        -0.0015                  122.48507008859929-76.84303706414389i             -2747.288570318964-3621.505125342721i             188.6290507514497-119.90285042417187i
0.016767676767676768      0                        -0.0015                  99.82478779780493-61.932903337106865i             -2695.630997307364-3586.3973324735116i            160.5389267722229-109.05062737062441i
0.016969696969696968      0                        -0.0015                  77.16450550700986-47.02276961006995i              -2643.8377384046207-3553.253733506953i            134.4051050060009-97.76518919421741i
0.01717171717171717       0                        -0.0015                  54.50422321621629-32.112635883033036i             -2591.9087936107403-3522.0743284430464i           110.22758545278477-86.04653589495216i
0.017373737373737375      0                        -0.0015                  31.843940925421947-17.202502155996495i            -2539.8441629257204-3492.859117281793i            88.00636811257361-73.89466747282754i
0.017575757575757574      0                        -0.0015                  9.183658634627696-2.2923684289592754i             -2487.643846349559-3465.608100023191i             67.74145298536739-61.30958392784404i
0.017777777777777778      0                        -0.0015                  -13.476623656166646+12.617765298077943i           -2435.307843882258-3440.321276667241i             49.432840071166495-48.29128526000118i
0.01797979797979798       0                        -0.0015                  -36.136905946961136+27.527899025114504i           -2382.836155523818-3416.9986472139435i            33.080529369970776-34.83977146929954i
0.01818181818181818       0                        -0.0015                  1.8616476746861774+207.2824140920517i             -2278.7459672094333-3408.9403392430304i           65.83263740637824+217.42334505538352i
0.018383838383838384      0                        -0.0015                  38.84682322020092+129.43345534046702i             -2109.0334340234376-3416.7071863255364i           63.787522821647755+173.34440413310318i
0.018585858585858588      0                        -0.0015                  75.8319987657162+51.584496588883454i              -1929.6770562290365-3424.730004905379i            62.147252045148846+129.27749430097458i
0.018787878787878787      0                        -0.0015                  112.81717431123235-26.264462162698358i            -1740.6768338262254-3433.008794982552i            60.91182507688059+85.22261555899432i
0.01898989898989899       0                        -0.0015                  149.80234985674616-104.11342091428128i            -1542.0327668150137-3441.5435565570597i           60.08124191684233+41.179767907160986i
0.01919191919191919       0                        -0.0015                  186.78752540226122-181.96237966586486i            -1333.7448551953908-3450.334289628903i            59.65550256503505-2.851048654524107i
0.019393939393939394      0                        -0.0015                  223.77270094777575-259.8113384174472i             -1115.8130989673612-3459.3809941980785i           59.6346070214589-46.86983412605843i
0.019595959595959597      0                        -0.0015                  260.7578764932899-337.6602971690335i              -888.2374981309205-3468.683670264589i             60.018555286113084-90.87658850744609i
0.019797979797979797      0                        -0.0015                  297.74305203880493-415.5092559206165i             -651.0180526860782-3478.242317828432i             60.807347358998385-134.871311798684i
0.02                      0                        -0.0015                  3.940893868707208E-5-1.459192362135877E-4i        -4.0998063954642596E-4-0.0021973184488319857i     -1.5169000734494175E-4+1.8515325240313666E-4i
