% Model:              FEA.mph
% Version:            COMSOL 6.0.0.318
% Date:               Jul 31 2022, 09:22
% Dimension:          3
% Nodes:              100
% Expressions:        3
% Description:        Current density, x component, Current density, y component, Current density, z component
% Length unit:        m
% x                       y                        z                        mf.Jx (A/m^2) @ freq=500, Material Switch 1=Stainless Steel mf.Jy (A/m^2) @ freq=500, Material Switch 1=Stainless Steel mf.Jz (A/m^2) @ freq=500, Material Switch 1=Stainless Steel
0                         0                        -0.0015                  -13.77673205483906+3.1987384755122594i            -8.259165060166856+9.164026686521i                47.6634131213773-22.402771945764517i
2.0202020202020202E-4     0                        -0.0015                  -15.610248291517529+3.022583345358806i            -770.9371136192023-1105.3082189620875i            120.8505596718961-71.73879981630519i
4.0404040404040404E-4     0                        -0.0015                  -17.443764528195878+2.8464282152055933i           -1527.6572397565628-2218.8760651341017i           192.67317812594806-123.35224441148422i
6.060606060606061E-4      0                        -0.0015                  -19.277280764873986+2.6702730850529837i           -2278.4195434722483-3331.5395118295214i           263.131268483533-177.24310573130074i
8.080808080808081E-4      0                        -0.0015                  -21.110797001552097+2.4941179548997714i           -3023.224024766263-4443.298559048353i             332.2248307446502-233.41138377575336i
0.00101010101010101       0                        -0.0015                  -43.79101504266157+11.277117858421953i            -3734.165368598873-5569.638476283604i             408.58972558485544-296.11978154098773i
0.0012121212121212121     0                        -0.0015                  -3.40780713543864-22.24477628302903i              -4452.0052058844785-6669.568674666636i            766.4877763515037-429.4262393924348i
0.0014141414141414141     0                        -0.0015                  4.570411906415665-22.074087314463267i             -5164.91232828849-7735.275618993179i              791.820548747261-458.67308860597086i
0.0016161616161616162     0                        -0.0015                  -6.766009216950284-6.248652043650651i             -5890.425141392004-8717.205500397176i             -771.120930593077+477.0261467687776i
0.0018181818181818182     0                        -0.0015                  -15.263963513872989-5.64269775201651i             -6584.887825423827-9711.162501275297i             -867.3981016819758+546.4597132306795i
0.00202020202020202       0                        -0.0015                  -23.761917810795698-5.036743460379955i            -7255.906835880537-10678.578962911588i            -947.6017704146501+618.0131818953067i
0.0022222222222222222     0                        -0.0015                  -32.2598721077184-4.430789168744849i              -7903.482172762137-11619.454885306053i            -1011.7319367911006+691.686552762659i
0.0024242424242424242     0                        -0.0015                  156.96941873000813-37.30734548285948i             -8432.930908375147-12542.936810384143i            -1119.5500075307796+791.1384417683653i
0.0026262626262626263     0                        -0.0015                  -47.88236186074793-13.259279139052083i            -8977.548769070285-13393.075672072628i            -205.25479997144268+164.22935087409374i
0.0028282828282828283     0                        -0.0015                  -23.879800502222526+10.095196147291169i           -9533.294158378241-14218.438050239545i            -251.7908046738749+236.17294343031094i
0.0030303030303030303     0                        -0.0015                  0.1227608563057784+33.44967143363297i             -10047.968076118485-14990.591713428706i           -307.2111235070155+307.9994669372484i
0.0032323232323232323     0                        -0.0015                  -82.250628092866+94.49916380581014i               -10340.717215509936-15775.010630775476i           -237.70602013432665+251.1357114665068i
0.0034343434343434343     0                        -0.0015                  -78.52621100995506+86.92828071381872i             -10726.571226286007-16397.06625463506i            -211.77425317632392+225.78853461325295i
0.0036363636363636364     0                        -0.0015                  -74.80179392704318+79.35739762182646i             -11076.212624620373-16960.312963864115i           -188.6187218900198+203.4409056683025i
0.0038383838383838384     0                        -0.0015                  -71.07737684412936+71.78651452984042i             -11389.64141051305-17464.750758462662i            -168.23942627542576+184.09282463163663i
0.00404040404040404       0                        -0.0015                  33.92672825217919-26.242840697721395i             -11700.987177015604-17884.20752141174i            -141.01880289739364+156.5666301934073i
0.004242424242424242      0                        -0.0015                  25.908789381231934-20.946468512847005i            -11977.124005759897-18258.13915147409i            -133.5514804559675+137.6390461919965i
0.0044444444444444444     0                        -0.0015                  17.890850510291425-15.65009632796297i             -12216.390774409081-18564.495352926384i           -124.3931680559238+120.47035850736019i
0.004646464646464647      0                        -0.0015                  9.87291163934513-10.35372414308472i               -12418.787482963153-18803.27612576862i            -113.54386569726071+105.06056713949437i
0.0048484848484848485     0                        -0.0015                  1.8549727684007629-5.057351958204545i             -12584.314131422116-18974.481470000825i           -101.00357337997654+91.40967208840921i
0.00505050505050505       0                        -0.0015                  -6.162966102539745+0.2390202266804558i            -12712.97071978597-19078.111385622964i            -86.77229110406886+79.51767335409983i
0.0052525252525252525     0                        -0.0015                  -14.18090497348797+5.535392411552916i             -12804.757248054706-19114.16587263505i            -70.8500188695483+69.38457093655853i
0.005454545454545455      0                        -0.0015                  25.99299569386604+83.53313808479923i              -12949.946798773228-19220.767725028247i           1622.473255415799-1201.452184197648i
0.0056565656565656566     0                        -0.0015                  24.586902330695064-11.018023360467682i            -12711.044135202928-18909.816294181677i           -56.65540705797201-87.8252253969673i
0.005858585858585858      0                        -0.0015                  20.667990609409102-10.304989568355976i            -12646.757339049047-18750.347243237913i           -60.96675903573557-75.12071470088952i
0.006060606060606061      0                        -0.0015                  16.74907888811566-9.591955776252954i              -12558.479694385403-18547.78350025734i            -65.04395239741794-61.0470968815255i
0.006262626262626263      0                        -0.0015                  12.83016716683162-8.878921984135461i              -12446.211201212014-18302.12506524i               -68.88698714302976-45.60437193887183i
0.006464646464646465      0                        -0.0015                  8.911255445542036-8.165888192026651i              -12309.95185952886-18013.37193818585i             -72.49586327257144-28.792539872943735i
0.006666666666666666      0                        -0.0015                  4.992343724250041-7.4528543999212165i             -12149.701669335947-17681.524119094913i           -75.87058078603518-10.611600683721434i
0.006868686868686869      0                        -0.0015                  1.0734320029696214-6.739820607799384i             -11965.460630633283-17306.581607967182i           -79.01113968341694+8.93844562880797i
0.007070707070707071      0                        -0.0015                  -2.8454797183199623-6.026786815689125i            -11757.228743420857-16888.544404802655i           -81.91753996473174+29.857599064604095i
0.007272727272727273      0                        -0.0015                  -6.764391439609546-5.313753023580797i             -11525.00600769868-16427.41250960134i             -84.58978162997381+52.14585962368991i
0.007474747474747474      0                        -0.0015                  6.977686334821652+5.404249762423939i              -11319.588915531436-16019.478577648993i           -85.95593011434482+58.954923247874625i
0.007676767676767677      0                        -0.0015                  6.460219408782143+4.559879340451359i              -11104.710776425396-15607.277580059823i           -86.78914970827435+64.45558175691883i
0.00787878787878788       0                        -0.0015                  5.9427524827368465+3.715508918472027i             -10874.62610322744-15180.725549893143i            -87.60416708753802+70.31446825048057i
0.00808080808080808       0                        -0.0015                  5.4252855566915485+2.8711384964926943i            -10629.334895937563-14739.822487148944i           -88.40098225214616+76.53158272853474i
0.008282828282828282      0                        -0.0015                  4.907818630649628+2.026768074516256i              -10368.837154555773-14284.56839182725i            -89.17959520207445+83.10692519113682i
0.008484848484848484      0                        -0.0015                  4.3903517046081895+1.182397652543194i             -10093.132879082055-13814.963263928017i           -89.94000593734698+90.04049563823087i
0.008686868686868687      0                        -0.0015                  3.872884778563857+0.3380272305653088i             -9802.222069516425-13331.007103451286i            -90.6822144579493+97.33229406984965i
0.008888888888888889      0                        -0.0015                  3.355417852517234-0.5063431914166762i             -9496.104725858882-12832.69991039705i             -91.40622076389178+104.98232048597292i
0.00909090909090909       0                        -0.0015                  -1.908563443787224+1.517588432045658i             -9077.542415023325-12424.892120658385i            -0.987244709017717+1.1227714569768528i
0.009292929292929294      0                        -0.0015                  -1.661381542113147+1.3365359976417712i            -8851.60369113281-12083.566433826418i             -0.8789277983772339+1.1378149549947882i
0.009494949494949495      0                        -0.0015                  -1.4141996404341903+1.155483563248869i            -8625.232646518865-11740.22082464732i             -0.7854933617743667+1.1278496943322829i
0.009696969696969697      0                        -0.0015                  -1.1670177387552334+0.9744311288548808i           -8398.429281181496-11394.85529312108i             -0.7069413992057468+1.0928756749984174i
0.009898989898989899      0                        -0.0015                  -0.9198358370776032+0.7933786944590844i           -8171.193595120694-11047.469839247695i            -0.6432719106702285+1.032892896991142i
0.0101010101010101        0                        -0.0015                  -0.6726539353997317+0.6123262600623232i           -7943.52558833646-10698.064463027162i             -0.5944848961676916+0.947901360315762i
0.010303030303030303      0                        -0.0015                  -0.42547203372186015+0.4312738256674911i          -7715.4252608287925-10346.639164459479i           -0.5605803557025973+0.8379010649640782i
0.010505050505050505      0                        -0.0015                  -0.17829013204302402+0.25022139127169446i         -7486.892612597699-9993.19394354466i              -0.5415582892693991+0.702892010941999i
0.010707070707070707      0                        -0.0015                  0.06889176963436522+0.06916895687638025i          -7257.927643643175-9637.728800282695i             -0.5374186968705688+0.5428741982456657i
0.01090909090909091       0                        -0.0015                  0.10927846708848012-0.040090248265143735i         -7030.753162377097-9283.418525878153i             -0.5434954187541081+0.3668956077480935i
0.011111111111111112      0                        -0.0015                  0.11226368638375063-0.03469123518240126i          -6843.656226148048-8988.256719589865i             -0.4709995563338448+0.34463095738354493i
0.011313131313131313      0                        -0.0015                  0.1152489056775742-0.02929222209869416i           -6654.756376455334-8695.413315663296i             -0.4002504433065392+0.31808594010607i
0.011515151515151515      0                        -0.0015                  0.11823412497332705-0.023893209014987055i         -6464.053613298959-8404.888314098458i             -0.33124807966874714+0.287260555918374i
0.011717171717171716      0                        -0.0015                  0.12121934426859757-0.018494195931279957i         -6271.547936678917-8116.681714895339i             -0.2639924654216746+0.2521548048124989i
0.01191919191919192       0                        -0.0015                  0.12420456356290346-0.01309518284853748i          -6077.239346595215-7830.79351805395i              -0.1984836005682154+0.21276868679085614i
0.012121212121212121      0                        -0.0015                  0.12718978285793284-0.007696169765795003i         -5881.127843047849-7547.223723574284i             -0.1347214851042699+0.16910220185730432i
0.012323232323232323      0                        -0.0015                  0.1301750021519976-0.0022971566840171522i         -5683.21342603682-7265.972331456343i              -0.07270611903200845+0.12115535000774372i
0.012525252525252526      0                        -0.0015                  0.13316022144823272+0.0031018564013780407i        -5483.496095562128-6987.03934170013i              -0.012437502349622464+0.06892813124627407i
0.012727272727272728      0                        -0.0015                  0.1462035526206111+0.021917359242523634i          -5254.356824262451-6790.596438346142i             0.0196295857753346+0.07726646167810074i
0.01292929292929293       0                        -0.0015                  0.14264804956118673+0.025854958094257693i         -5119.5648279955385-6606.839872222905i            0.021767147038174887+0.07463172577341397i
0.013131313131313131      0                        -0.0015                  0.1390925465033864+0.029792556948738665i          -4986.319119026101-6424.069554166868i             0.023046311597563412+0.07091313137502177i
0.013333333333333332      0                        -0.0015                  0.13553704344612869+0.033730155805269474i         -4854.619697354141-6242.285484178026i             0.023467079453779+0.0661106784838021i
0.013535353535353536      0                        -0.0015                  0.13198154038802692+0.03766775465962986i          -4724.466562979647-6061.48766225637i              0.023029450609233226+0.06022436710493984i
0.013737373737373737      0                        -0.0015                  0.12842603732920163+0.04160535351326679i          -4595.859715902632-5881.676088401913i             0.021733425063202617+0.05325419723481762i
0.013939393939393939      0                        -0.0015                  0.12487053427085873+0.04554295236642141i          -4468.799156123091-5702.850762614656i             0.019579002814360806+0.04520016887319429i
0.014141414141414142      0                        -0.0015                  0.12131503121251579+0.04948055122198758i          -4343.28488364102-5525.0116848945845i             0.016566183863672427+0.03606228202031101i
0.014343434343434344      0                        -0.0015                  0.11775952815513747+0.05341815007707145i          -4219.316898456425-5348.158855241711i             0.012694968211077188+0.025840536676529507i
0.014545454545454545      0                        -0.0015                  0.11935758479823183+0.06317872343558052i          -4097.535776349667-5173.130016944202i             0.008039900102178891+0.014844354701621583i
0.014747474747474747      0                        -0.0015                  0.11548715202728299+0.06004929372991067i          -3996.5251459137817-5026.1131434561285i           0.004857828041846966+0.01280518956820775i
0.014949494949494949      0                        -0.0015                  0.11161671925778109+0.056919864026170094i         -3895.108849878944-4881.186240083451i             7.731130964154008E-4+0.010204085741445759i
0.015151515151515152      0                        -0.0015                  0.10774628648586763+0.05379043432001793i          -3793.2868882451503-4738.34930682617i             -0.0042142447366893925+0.007041043220218379i
0.015353535353535354      0                        -0.0015                  0.10387585371636573+0.05066100461579503i          -3691.0592610124036-4597.60234368429i             -0.010104245455538164+0.0033160620065151502i
0.015555555555555555      0                        -0.0015                  0.10000542094493457+0.047531574909642875i         -3588.425968180703-4458.945350657808i             -0.01689688906230132-9.708579038841615E-4i
0.01575757575757576       0                        -0.0015                  0.09613498817519152+0.044402145205902285i         -3485.387009750049-4322.3783277467255i            -0.024592175554687873-0.0058197165061564336i
0.01595959595959596       0                        -0.0015                  0.09226455540424268+0.04127271550023245i          -3381.942385720443-4187.901274951045i             -0.033190104934868236-0.01123051380428074i
0.01616161616161616       0                        -0.0015                  0.08839412263365558+0.038143285794984626i         -3278.092096091882-4055.5141922707594i            -0.04269067720139546-0.017203249795845522i
0.016363636363636365      0                        -0.0015                  0.0838848007214659+0.04091036465364834i           -3171.642010596612-3951.560826660429i             0.046064581257862655+0.23188503002889552i
0.016565656565656565      0                        -0.0015                  0.08133201589094304+0.041624172670065594i         -3096.706811340374-3873.113801061881i             0.03155373700536212+0.18997228407299505i
0.016767676767676768      0                        -0.0015                  0.07877923106306631+0.04233798069145858i          -3018.9996693223065-3797.210205817612i            0.01751933961449616+0.14729174764017355i
0.016969696969696968      0                        -0.0015                  0.07622644623228063+0.043051788707726996i         -2938.5205845424134-3723.8500409276285i           0.003961389089622073+0.1038434207412615i
0.01717171717171717       0                        -0.0015                  0.07367366140414769+0.04376559672918026i          -2855.2695570006917-3653.033306391926i            -0.009120114574595722+0.05962730336567813i
0.017373737373737375      0                        -0.0015                  0.07112087657450751+0.0444794047475588i           -2769.2465866971434-3584.760002210508i            -0.021725171373454682+0.014643395522105045i
0.017575757575757574      0                        -0.0015                  0.06856809174468645+0.04519321276569618i          -2680.451673631769-3519.030128383373i             -0.03385378130888406-0.031108302794461733i
0.017777777777777778      0                        -0.0015                  0.06601530691510656+0.04590702078431586i          -2588.8848178045664-3455.843684910521i            -0.04550594438109485-0.07762779158245468i
0.01797979797979798       0                        -0.0015                  0.06346252208661186+0.04662082880438248i          -2494.546019215537-3395.2006717919508i            -0.0566816605902981-0.12491507084229585i
0.01818181818181818       0                        -0.0015                  0.09329920643950866+0.20006966128320436i          -2397.3584991279013-3337.3620628141366i           -0.04979757383532351-0.137796944252292i
0.018383838383838384      0                        -0.0015                  0.08385303498809944+0.1735847532403807i           -2281.5096132777094-3308.748396969343i            -0.05455295337859405-0.13235470954081094i
0.018585858585858588      0                        -0.0015                  0.07440686353644907+0.14709984519755695i          -2146.137015062393-3285.5170937024873i            -0.056839894224234966-0.12474548182960084i
0.018787878787878787      0                        -0.0015                  0.06496069208479868+0.1206149371540098i           -1991.240704481957-3267.6681530135716i            -0.05665839637303235-0.11496926112069411i
0.01898989898989899       0                        -0.0015                  0.05551452063314831+0.09413002911070381i          -1816.8206815363928-3255.201574902592i            -0.05400845982432303-0.10302604741210124i
0.01919191919191919       0                        -0.0015                  0.04606834918173909+0.06764512106812126i          -1622.8769462257083-3248.1173593695503i           -0.04889008457907163-0.08891584070623376i
0.019393939393939394      0                        -0.0015                  0.03662217772924467+0.04116021302397121i          -1409.409498549897-3246.415506414446i             -0.0413032706358312-0.07263864099983608i
0.019595959595959597      0                        -0.0015                  0.027176006278136898+0.014675304981509249i        -1176.418338508961-3250.0960160372783i            -0.031248017996109-0.05419444829628437i
0.019797979797979797      0                        -0.0015                  0.01772983482618507-0.011809603062339363i         -923.9034661029058-3259.158888238051i             -0.018724326658458065-0.033583262592684786i
0.02                      0                        -0.0015                  -2.8002678817363438E-5-3.9247443216692535E-6i     -3.3946510786902914E-4-0.0022988171000125884i     1.517363536166784E-8-1.4939890440477579E-7i
