% Model:              FEA.mph
% Version:            COMSOL 6.0.0.318
% Date:               Oct 30 2022, 11:59
% Dimension:          3
% Nodes:              100
% Expressions:        3
% Description:        Current density, x component, Current density, y component, Current density, z component
% Length unit:        m
% x                       y                        z                        mf.Jx (A/m^2) @ freq=500, Material Switch 1=Stainless Steel mf.Jy (A/m^2) @ freq=500, Material Switch 1=Stainless Steel mf.Jz (A/m^2) @ freq=500, Material Switch 1=Stainless Steel
0                         0                        -0.0015                  -13.766815295725683+3.2103336698906677i           -8.222438419503396+9.266218064070143i             47.612983918431055-22.41285503324681i
2.0202020202020202E-4     0                        -0.0015                  -15.59515424615219+3.0302153825170963i            -770.9239421927549-1105.2230899308752i            120.80607404446103-71.7425166212251i
4.0404040404040404E-4     0                        -0.0015                  -17.42349319657821+2.8500970951442492i            -1527.6676630809254-2218.8093794339634i           192.63897038756343-123.34979113478569i
6.060606060606061E-4      0                        -0.0015                  -19.25183214700399+2.669978807772125i             -2278.453601084015-3331.492650445197i             263.11167294773765-177.23467857392671i
8.080808080808081E-4      0                        -0.0015                  -21.080171097429773+2.4898605203995183i           -3023.281756202027-4443.272902964579i             332.2241817249843-233.39717893864986i
0.00101010101010101       0                        -0.0015                  -43.76708993792204+11.273076544323752i            -3734.2330539724394-5569.6405275982315i           408.6146242074394-296.10191338885255i
0.0012121212121212121     0                        -0.0015                  -3.388577530981689-22.256788196330184i            -4452.095535130264-6669.599130015715i             766.521789820406-429.4424432883978i
0.0014141414141414141     0                        -0.0015                  4.595918774305414-22.091698554413146i             -5165.01983473891-7735.3346200276355i             791.874057661418-458.69060719114736i
0.0016161616161616162     0                        -0.0015                  -6.7359324473457125-6.263030900847203i            -5890.536096341285-8717.283969374264i             -771.0000193999996+477.0109590482697i
0.0018181818181818182     0                        -0.0015                  -15.236413607398067-5.658096549261972i            -6585.017942435184-9711.273639958177i             -867.2577087718911+546.4358153608981i
0.00202020202020202       0                        -0.0015                  -23.73689476744994-5.053162197673365i             -7256.054058409452-10678.724783837362i            -947.4471509407902+617.983883539497i
0.0022222222222222222     0                        -0.0015                  -32.237375927501326-4.448227846087169i            -7903.6444442640895-11619.637401011814i           -1011.5683459066976+691.6551635840656i
0.0024242424242424242     0                        -0.0015                  156.9934499043638-37.339685711144014i             -8433.109750633974-12543.164705666833i            -1119.4328218833693+791.1134966847783i
0.0026262626262626263     0                        -0.0015                  -47.9046561036055-13.298753246661745i             -8977.734115670042-13393.342614384095i            -205.22650562501607+164.22223041039356i
0.0028282828282828283     0                        -0.0015                  -23.897492402215754+10.055022277425051i           -9533.494968505505-14218.750117351226i            -251.76731331595585+236.15790979243388i
0.0030303030303030303     0                        -0.0015                  0.1096712991744711+33.40879780151185i             -10048.184329004102-14990.94776242791i            -307.1908000360631+307.97670451013033i
0.0032323232323232323     0                        -0.0015                  -82.26286759081026+94.46439018858247i             -10340.95992743033-15775.407892966929i            -237.6932695418534+251.1124613150124i
0.0034343434343434343     0                        -0.0015                  -78.53999664264832+86.89471968817156i             -10726.836881229094-16397.49612499065i            -211.7659541246088+225.76846138392202i
0.0036363636363636364     0                        -0.0015                  -74.81712569448469+79.32504918776104i             -11076.49999758959-16960.77524390769i             -188.61238599963647+203.42419156648128i
0.0038383838383838384     0                        -0.0015                  -71.09425474631878+71.75537868735466i             -11389.949276511832-17465.24524971808i            -168.2325651669488+184.07965186267577i
0.00404040404040404       0                        -0.0015                  33.91955367384817-26.27538714320415i              -11701.317333639548-17884.73339398514i            -141.00912052823568+156.55705703206615i
0.004242424242424242      0                        -0.0015                  25.90028623101791-20.979417841853913i             -11977.472651321938-18258.694985341546i           -133.54547265558688+137.63460957117178i
0.0044444444444444444     0                        -0.0015                  17.8810187881973-15.683448540495966i              -12216.757129755691-18565.077923847508i           -124.39069843737951+120.4720935885064i
0.004646464646464647      0                        -0.0015                  9.8617513453709-10.387479239139942i               -12419.170768940823-18803.882209503026i           -113.5447978736154+105.06950908407603i
0.0048484848484848485     0                        -0.0015                  1.8424839025483606-5.0915099377800646i            -12584.713568877327-18975.107842308116i           -101.00777096429162+91.42685605788742i
0.00505050505050505       0                        -0.0015                  -6.176783540276109+0.20445936357884956i           -12713.3855295652-19078.75482226276i              -86.77961770940821+79.54413450993287i
0.0052525252525252525     0                        -0.0015                  -14.196050983105883+5.500428664931976i            -12805.186651004438-19114.823149366963i           -70.8603381089695+69.42134444021238i
0.005454545454545455      0                        -0.0015                  25.96799368079214+83.50110092204518i              -12950.374987911231-19221.443761061135i           1622.5272069775563-1201.4915591024717i
0.0056565656565656566     0                        -0.0015                  24.572987976546884-11.053234917002658i            -12711.476918629674-18910.511379496653i           -56.643114145995455-87.84340979143597i
0.005858585858585858      0                        -0.0015                  20.655019817840145-10.336567468928298i            -12647.189544473858-18751.036815136555i           -60.956228821072266-75.13160941542748i
0.006060606060606061      0                        -0.0015                  16.73705165912689-9.619900020865993i              -12558.910190299426-18548.46576427842i            -65.03492968281337-61.05213666569393i
0.006262626262626263      0                        -0.0015                  12.819083500423524-8.903232572788255i             -12446.638856106405-18302.798226922285i           -68.87921673122493-45.60499154222967i
0.006464646464646465      0                        -0.0015                  8.901115341715338-8.186565124718717i              -12310.375541894762-18014.034203068102i           -72.48908996630841-28.790174045052307i
0.006666666666666666      0                        -0.0015                  4.983147183004256-7.469897676652072i              -12150.120247664514-17682.173692715893i           -75.86454938805697-10.607684174140742i
0.006868686868686869      0                        -0.0015                  1.0651790243033028-6.753230228570959i             -11965.872973415653-17307.21669586566i            -79.00559499646802+8.942478070513468i
0.007070707070707071      0                        -0.0015                  -2.8527891344048846-6.036562780499491i            -11757.633719148185-16889.163212517393i           -81.91222679155388+29.86031268888084i
0.007272727272727273      0                        -0.0015                  -6.770757293114038-5.319895332431881i             -11525.402484862112-16428.013242671102i           -84.58444477330794+52.145819680968714i
0.007474747474747474      0                        -0.0015                  6.977476638584439+5.40357675216776i               -11319.978374767843-16020.060670738772i           -85.95253728352563+58.95675374945064i
0.007676767676767677      0                        -0.0015                  6.4594789043943335+4.560869442101668i             -11105.09280856506-15607.841013630536i            -86.78748254480193+64.45917632921034i
0.00787878787878788       0                        -0.0015                  5.941481170199407+3.7181621320288207i             -10874.999941573033-15181.270211569403i           -87.60390571546726+70.31893327952928i
0.00808080808080808       0                        -0.0015                  5.423483436002549+2.8754548219511515i             -10629.699773791748-14740.348264555369i           -88.40180679553124+76.53602460037611i
0.008282828282828282      0                        -0.0015                  4.905485701810033+2.032747511880235i              -10369.192305221233-14285.07517258845i            -89.18118578496636+83.11045029181452i
0.008484848484848484      0                        -0.0015                  4.387487967617998+1.1900402018112477i             -10093.477535861457-13815.450935668618i           -89.94204268379966+90.04221035378175i
0.008686868686868687      0                        -0.0015                  3.8694902334240355+0.3473328917379194i            -9802.555465712436-13331.475553795892i            -90.6843774920152+97.33130478630876i
0.008888888888888889      0                        -0.0015                  3.3514924992270574-0.495374418338785i             -9496.426094774177-12833.149026970283i            -91.40819020962361+104.97773358938824i
0.00909090909090909       0                        -0.0015                  -1.9080920317217396+1.5217156244851773i           -9077.848975835683-12425.327255590591i            -0.993046762217776+1.1371654919542762i
0.009292929292929294      0                        -0.0015                  -1.6609954507615678+1.339922576833357i            -8851.901791265209-12083.988256201765i            -0.8844816469205794+1.1487865609473698i
0.009494949494949495      0                        -0.0015                  -1.4138988697964747+1.1581295291901543i           -8625.522308268883-11740.629366827612i            -0.7907423544911854+1.1357890045207812i
0.009696969696969697      0                        -0.0015                  -1.1668022888320446+0.9763364815473738i           -8398.710526846704-11395.250587468134i            -0.7118288849223927+1.0981728226792054i
0.009898989898989899      0                        -0.0015                  -0.9197057078682177+0.7945434339020611i           -8171.466446998671-11047.851918123322i            -0.64774123821384+1.035938015427345i
0.0101010101010101        0                        -0.0015                  -0.6726091269051143+0.612750386254819i            -7943.790068724778-10698.433358793172i            -0.5984794143662505+0.9490845827631504i
0.010303030303030303      0                        -0.0015                  -0.42551254594128735+0.4309573386109532i          -7715.681392025031-10346.994909477682i            -0.5640434133816742+0.8376125246861389i
0.010505050505050505      0                        -0.0015                  -0.1784159649767369+0.2491642909656405i           -7487.140416899433-9993.53657017687i              -0.5444332352583022+0.7015218411940197i
0.010707070707070707      0                        -0.0015                  0.06868061598636661+0.06737124332032772i          -7258.167143347978-9638.058340890724i             -0.5396488799969185+0.5408125322930629i
0.01090909090909091       0                        -0.0015                  0.1090127892151925-0.038445048308632844i          -7030.984564404333-9283.735086762787i             -0.5450049618626952+0.36451096297378677i
0.011111111111111112      0                        -0.0015                  0.11191448220858265-0.03306112860643304i          -6843.882749977272-8988.561923318342i             -0.4714525572579379+0.3418430819643729i
0.011313131313131313      0                        -0.0015                  0.11481617520149047-0.02767720890423324i          -6654.977611882156-8695.70761077472i              -0.3997374528946832+0.3151528482915459i
0.011515151515151515      0                        -0.0015                  0.11771786819584526-0.022293289200104184i         -6464.269150118981-8405.172149131913i             -0.32985964877270496+0.28444026196120625i
0.011717171717171716      0                        -0.0015                  0.1206195611887531-0.01690936949693976i           -6271.757364687744-8116.955538389922i             -0.261819144894053+0.24970532296491368i
0.01191919191919192       0                        -0.0015                  0.12352125418262558-0.011525449795222274i         -6077.442255588448-7831.057778548751i             -0.19561594126041545+0.21094803130170353i
0.012121212121212121      0                        -0.0015                  0.12642294717480992-0.006141530093987096i         -5881.323822821094-7547.4788696084i               -0.1312500378681749+0.1681683869807397i
0.012323232323232323      0                        -0.0015                  0.1293246401677178-7.576103932342315E-4i          -5683.40206638568-7266.218811568865i              -0.0687214347207076+0.12136638999502869i
0.012525252525252526      0                        -0.0015                  0.13222633316219315+0.004626309312462332i         -5483.6769862822075-6987.277604430149i            -0.008030131812708065+0.07054204034818783i
0.012727272727272728      0                        -0.0015                  0.1470912526049762+0.025141453047626428i          -5254.528780375401-6790.830085983801i             0.021896459980041492+0.07430881823164878i
0.01292929292929293       0                        -0.0015                  0.14359077293586148+0.028985524414299867i         -5119.732318479764-6607.067337278371i             0.024299516423212035+0.07238217977508891i
0.013131313131313131      0                        -0.0015                  0.14009029326771513+0.032829595783407474i         -4986.482194559066-6424.290816155268i             0.025763973964857707+0.06920900834205676i
0.013333333333333332      0                        -0.0015                  0.1365898136008349+0.0366736671540826i            -4854.778408613308-6242.500522614491i             0.0262898326051443+0.06478930393430825i
0.013535353535353536      0                        -0.0015                  0.1330893339333517+0.04051773852306963i           -4724.620960642481-6061.696456656029i             0.02587709234636279+0.059123066554616695i
0.013737373737373737      0                        -0.0015                  0.1295888542651451+0.0443618098918155i            -4596.009850646596-5881.878618279898i             0.024525753187789715+0.0522102962022586i
0.013939393939393939      0                        -0.0015                  0.12608837459645617+0.04820588125959675i          -4468.945078625648-5703.047007486095i             0.022235815128822185+0.04405099287482242i
0.014141414141414142      0                        -0.0015                  0.12258789492897301+0.05204995262930725i          -4343.426644579634-5525.2016242746095i            0.019007278169460202+0.03464515657399624i
0.014343434343434344      0                        -0.0015                  0.11908741526148986+0.055894023999017745i         -4219.454548508559-5348.342468645448i             0.014840142310186077+0.02399278729953891i
0.014545454545454545      0                        -0.0015                  0.1214649613085379+0.06514611744462025i           -4097.66938893635-5173.307295262747i              0.009809548531071266+0.012415619203878493i
0.014747474747474747      0                        -0.0015                  0.1175198549872173+0.061874561599458255i          -3996.6554661574-5026.2845360790625i              0.00624562111077398+0.01013672369678311i
0.014949494949494949      0                        -0.0015                  0.11357474866686133+0.05860300575670783i          -3895.2358822286533-4881.351941154699i            0.0018056252327784024+0.007356547375382859i
0.015151515151515152      0                        -0.0015                  0.10962964234554073+0.05533144991058121i          -3793.4106371501084-4738.509510489653i            -0.0035104391033638654+0.00407509023827413i
0.015353535353535354      0                        -0.0015                  0.10568453602590823+0.05205989406783079i          -3691.1797309217677-4597.75724408393i             -0.009702571896748488+2.923522883508001E-4i
0.015555555555555555      0                        -0.0015                  0.10173942970410531+0.048788338222909955i         -3588.543163543629-4459.0951419375315i            -0.01677077314978703-0.0039916664798131446i
0.01575757575757576       0                        -0.0015                  0.0977943233844728+0.04551678237895374i           -3485.5009350156934-4322.523204050451i            -0.024715042859585607-0.0087769660601888i
0.01595959595959596       0                        -0.0015                  0.09384921706363453+0.042245226534153496i         -3382.0530453379624-4188.041430422698i            -0.03353538102891753-0.014063546459407961i
0.01616161616161616       0                        -0.0015                  0.08990411074255507+0.03897367069001643i          -3278.199494510433-4055.649821054264i             -0.04323178765585354-0.019851407671441723i
0.016363636363636365      0                        -0.0015                  0.08574158354516156+0.04045911099537357i          -3171.7465574144553-3951.6961907676327i           0.04534495228006541+0.23101696084472928i
0.016565656565656565      0                        -0.0015                  0.08309236476687229+0.04098494599591529i          -3096.8087604550283-3873.2468438775177i           0.030693699043632228+0.1897770340179756i
0.016767676767676768      0                        -0.0015                  0.08044314599140857+0.041510781001339474i         -3019.098857684909-3797.341043615161i             0.016553570929324253+0.14761080195848997i
0.016969696969696968      0                        -0.0015                  0.07779392721329216+0.04203661600200083i          -2938.6168491041035-3723.9787899805747i           0.002924567942315511+0.10451826467734858i
0.01717171717171717       0                        -0.0015                  0.075144708437527+0.04256245100724416i            -2855.3627347126067-3653.160082973749i            -0.010193309922940591+0.06049942216363913i
0.017373737373737375      0                        -0.0015                  0.07249548966043548+0.04308828600977446i          -2769.336514510422-3584.8849225946888i            -0.022800062661500354+0.015554274426344697i
0.017575757575757574      0                        -0.0015                  0.0698462708832234+0.0436141210121842i            -2680.53818849755-3519.1533088433935i             -0.03489569027607678-0.030317178540322478i
0.017777777777777778      0                        -0.0015                  0.06719705210613189+0.04413995601495568i          -2588.967756673987-3455.9652417198636i            -0.04648019276558467-0.07711493673334793i
0.01797979797979798       0                        -0.0015                  0.06454783333012558+0.0446657910190535i           -2494.6252190397363-3395.3207212240973i           -0.05755357013116952-0.12483900015460067i
0.01818181818181818       0                        -0.0015                  0.09354983086432242+0.19993263762269206i          -2397.433801257266-3337.4807166036085i            -0.0498687000199225-0.1397026938147539i
0.018383838383838384      0                        -0.0015                  0.0840755732473126+0.17344177129346589i           -2281.581088287583-3308.8654301353317i            -0.054362393027738966-0.1345580296196998i
0.018585858585858588      0                        -0.0015                  0.07460131562957933+0.14695090496423974i          -2146.204119842762-3285.6328162576956i            -0.05633947160056059-0.12753036772561152i
0.018787878787878787      0                        -0.0015                  0.06512705801208721+0.12046003863429008i          -1991.3028959228086-3267.7828749707023i           -0.05579993573854141-0.11861970813485409i
0.01898989898989899       0                        -0.0015                  0.05565280039423337+0.09396917230482277i          -1816.8774165277155-3255.3156062743483i           -0.0527437854407771-0.10782605084519678i
0.01919191919191919       0                        -0.0015                  0.046178542777102996+0.0674783059755966i          -1622.9276816574886-3248.231010168634i            -0.04717102070889544-0.09514939585856885i
0.019393939393939394      0                        -0.0015                  0.03670428515864626+0.040987439645044074i         -1409.4536913121224-3246.5290866535634i           -0.03908164154048489-0.08058974317243817i
0.019595959595959597      0                        -0.0015                  0.027230027541576166+0.014496573316179645i        -1176.455445491618-3250.209835729129i             -0.028475647938499597-0.06414709279042205i
0.019797979797979797      0                        -0.0015                  0.017755769923692172-0.011994293014071433i        -923.9329441959833-3259.273257395338i             -0.01535303990046772-0.04582144470860173i
0.02                      0                        -0.0015                  -2.7997511051661242E-5-3.929224430805416E-6i      -3.394757339893445E-4-0.0022988956600241343i      1.8374383433754474E-8-1.6174203597420935E-7i
