% Model:              FEA_current_excitation.mph
% Version:            COMSOL 6.0.0.318
% Date:               Sep 29 2022, 14:26
% Table:              Table 1 - Point Evaluation 1
% Switch 1 index         Time (s)                 Magnetic flux density, z component (T), Point: 5
1                        0                        0
1                        2.0202020202020203E-5    3.205326720249655E-4
1                        4.0404040404040405E-5    6.5426075621932E-4
1                        6.060606060606061E-5     9.90369529448368E-4
1                        8.080808080808081E-5     0.0013236401185195436
1                        1.0101010101010101E-4    0.0016523475851883199
1                        1.2121212121212122E-4    0.001975841584083182
1                        1.414141414141414E-4     0.0022912307620812974
1                        1.6161616161616162E-4    0.002597488404380009
1                        1.8181818181818183E-4    0.002893301968278289
1                        2.0202020202020202E-4    0.0031776426360953106
1                        2.2222222222222223E-4    0.0034491728405047894
1                        2.4242424242424245E-4    0.003707099834885657
1                        2.6262626262626266E-4    0.003950055637286777
1                        2.828282828282828E-4     0.004177133051103338
1                        3.0303030303030303E-4    0.004387402738743165
1                        3.2323232323232324E-4    0.004580011928646351
1                        3.4343434343434346E-4    0.004754186974998657
1                        3.6363636363636367E-4    0.004909223693989551
1                        3.8383838383838383E-4    0.0050444959808266
1                        4.0404040404040404E-4    0.005159457663857232
1                        4.2424242424242425E-4    0.005253645515468336
1                        4.4444444444444447E-4    0.0053266797847954525
1                        4.646464646464647E-4     0.0053782657997710065
1                        4.848484848484849E-4     0.00540819577202144
1                        5.05050505050505E-4      0.005416349497582563
1                        5.252525252525253E-4     0.005402693410275268
1                        5.454545454545455E-4     0.0053672822672509056
1                        5.656565656565656E-4     0.005310259881426612
1                        5.858585858585859E-4     0.005231854984256559
1                        6.060606060606061E-4     0.005132381864140841
1                        6.262626262626263E-4     0.005012243802849984
1                        6.464646464646465E-4     0.004871924554256177
1                        6.666666666666666E-4     0.004711984280571903
1                        6.868686868686869E-4     0.004533071267435965
1                        7.070707070707071E-4     0.0043359107184378475
1                        7.272727272727273E-4     0.004121284797905848
1                        7.474747474747475E-4     0.0038900595766867374
1                        7.676767676767677E-4     0.0036431852149763676
1                        7.878787878787879E-4     0.0033816357754818463
1                        8.080808080808081E-4     0.0031064482025617707
1                        8.282828282828283E-4     0.0028187754426223857
1                        8.484848484848485E-4     0.002519762495913969
1                        8.686868686868687E-4     0.0022105766174723026
1                        8.888888888888889E-4     0.0018924973717554879
1                        9.090909090909091E-4     0.0015668136957253049
1                        9.292929292929294E-4     0.0012348030190535483
1                        9.494949494949495E-4     8.978238807761116E-4
1                        9.696969696969698E-4     5.572338820828241E-4
1                        9.8989898989899E-4       2.143970875475241E-4
1                        0.00101010101010101      -1.2930249606990908E-4
1                        0.0010303030303030303    -4.7248152006214696E-4
1                        0.0010505050505050506    -8.137577746585663E-4
1                        0.0010707070707070708    -0.001151757337178289
1                        0.001090909090909091     -0.0014851194442404376
1                        0.0011111111111111111    -0.001812501262909856
1                        0.0011313131313131313    -0.0021325846779762982
1                        0.0011515151515151516    -0.0024440811499285625
1                        0.0011717171717171718    -0.002745736233944697
1                        0.001191919191919192     -0.0030363349515928903
1                        0.0012121212121212121    -0.0033147074188433698
1                        0.0012323232323232323    -0.0035797330514549955
1                        0.0012525252525252527    -0.003830343983765464
1                        0.0012727272727272728    -0.0040655312072002325
1                        0.001292929292929293     -0.004284348899351085
1                        0.0013131313131313131    -0.004485914706723677
1                        0.0013333333333333333    -0.004669415927149439
1                        0.0013535353535353537    -0.004834116877652454
1                        0.0013737373737373738    -0.004979353479421069
1                        0.001393939393939394     -0.0051045358469743955
1                        0.0014141414141414141    -0.005209165980480213
1                        0.0014343434343434343    -0.005292826485198843
1                        0.0014545454545454547    -0.005355165999268714
1                        0.0014747474747474748    -0.005395939069925494
1                        0.001494949494949495     -0.005415003074723921
1                        0.0015151515151515152    -0.0054122522169504465
1                        0.0015353535353535353    -0.005387683640977987
1                        0.0015555555555555557    -0.005341461451406833
1                        0.0015757575757575758    -0.0052737408325495075
1                        0.001595959595959596     -0.005184721331586095
1                        0.0016161616161616162    -0.005074855078096055
1                        0.0016363636363636363    -0.004944590719553799
1                        0.0016565656565656567    -0.004794367144112051
1                        0.0016767676767676769    -0.004624842164197274
1                        0.001696969696969697     -0.004436735230236195
1                        0.0017171717171717172    -0.0042307278259930015
1                        0.0017373737373737373    -0.004007653913179499
1                        0.0017575757575757577    -0.003768526561685456
1                        0.0017777777777777779    -0.003514195381341933
1                        0.001797979797979798     -0.003245656729738951
1                        0.0018181818181818182    -0.0029641101360624728
1                        0.0018383838383838383    -0.0026706335552534417
1                        0.0018585858585858587    -0.002366345708312049
1                        0.0018787878787878789    -0.002052570941627884
1                        0.001898989898989899     -0.001730578182368533
1                        0.0019191919191919192    -0.00140150246015374
1                        0.0019393939393939396    -0.0010668224320788283
1                        0.0019595959595959597    -7.279249764840469E-4
1                        0.00197979797979798      -3.860169071506424E-4
1                        0.002                    -4.256226526875865E-5
2                        0                        0
2                        2.0202020202020203E-5    3.7510359979012523E-4
2                        4.0404040404040405E-5    7.685576604918204E-4
2                        6.060606060606061E-5     0.001163371825607674
2                        8.080808080808081E-5     0.0015562924775702424
2                        1.0101010101010101E-4    0.0019456065233164166
2                        1.2121212121212122E-4    0.002328221590989014
2                        1.414141414141414E-4     0.0027020162575041758
2                        1.6161616161616162E-4    0.0030655362564589207
2                        1.8181818181818183E-4    0.0034175397770385783
2                        2.0202020202020202E-4    0.00375619196351824
2                        2.2222222222222223E-4    0.004079969715159521
2                        2.4242424242424245E-4    0.004387652787118867
2                        2.6262626262626266E-4    0.00467796617308419
2                        2.828282828282828E-4     0.004949547727037085
2                        3.0303030303030303E-4    0.005201243919811339
2                        3.2323232323232324E-4    0.005432183037977068
2                        3.4343434343434346E-4    0.005641477497311311
2                        3.6363636363636367E-4    0.005827920549468769
2                        3.8383838383838383E-4    0.0059907166843132815
2                        4.0404040404040404E-4    0.0061297874082954056
2                        4.2424242424242425E-4    0.006244446512752772
2                        4.4444444444444447E-4    0.006333677453180384
2                        4.646464646464647E-4     0.006397190066396944
2                        4.848484848484849E-4     0.00643527235213739
2                        5.05050505050505E-4      0.0064476635697840266
2                        5.252525252525253E-4     0.006433814509319364
2                        5.454545454545455E-4     0.006393994000740661
2                        5.656565656565656E-4     0.00632855083617776
2                        5.858585858585859E-4     0.006237661876381047
2                        6.060606060606061E-4     0.00612160490034396
2                        6.262626262626263E-4     0.005980920238955662
2                        6.464646464646465E-4     0.00581619959624157
2                        6.666666666666666E-4     0.005628052266623854
2                        6.868686868686869E-4     0.005417203653516424
2                        7.070707070707071E-4     0.005184564594548858
2                        7.272727272727273E-4     0.0049311235739590425
2                        7.474747474747475E-4     0.004657755200690194
2                        7.676767676767677E-4     0.004365506896471593
2                        7.878787878787879E-4     0.004055826798567372
2                        8.080808080808081E-4     0.0037300389508843844
2                        8.282828282828283E-4     0.003388973678190989
2                        8.484848484848485E-4     0.0030340113578341305
2                        8.686868686868687E-4     0.002667107967560386
2                        8.888888888888889E-4     0.002289710505304215
2                        9.090909090909091E-4     0.0019028209899476256
2                        9.292929292929294E-4     0.0015080599845784825
2                        9.494949494949495E-4     0.0011075051779316396
2                        9.696969696969698E-4     7.026708106061593E-4
2                        9.8989898989899E-4       2.947261399151149E-4
2                        0.00101010101010101      -1.144543287591071E-4
2                        0.0010303030303030303    -5.229872215731003E-4
2                        0.0010505050505050506    -9.2945651636834E-4
2                        0.0010707070707070708    -0.001332412505262064
2                        0.001090909090909091     -0.001729875836812312
2                        0.0011111111111111111    -0.0021200883867081707
2                        0.0011313131313131313    -0.002501960303342871
2                        0.0011515151515151516    -0.002874124525356109
2                        0.0011717171717171718    -0.00323430297143749
2                        0.001191919191919192     -0.003581328783067466
2                        0.0012121212121212121    -0.003914140057703235
2                        0.0012323232323232323    -0.0042311639545510316
2                        0.0012525252525252527    -0.004531227193968585
2                        0.0012727272727272728    -0.004812924977785372
2                        0.001292929292929293     -0.005075369003537602
2                        0.0013131313131313131    -0.005317241405931001
2                        0.0013333333333333333    -0.005537878107873223
2                        0.0013535353535353537    -0.005735991183598301
2                        0.0013737373737373738    -0.005911288917500871
2                        0.001393939393939394     -0.006062423601962117
2                        0.0014141414141414141    -0.00618957491753778
2                        0.0014343434343434343    -0.00629120366371759
2                        0.0014545454545454547    -0.006368321497326463
2                        0.0014747474747474748    -0.006419205018463
2                        0.001494949494949495     -0.006444400863584834
2                        0.0015151515151515152    -0.0064434891151775925
2                        0.0015353535353535353    -0.006416927011233372
2                        0.0015555555555555557    -0.006364212558410878
2                        0.0015757575757575758    -0.006286277102267552
2                        0.001595959595959596     -0.006182529115658872
2                        0.0016161616161616162    -0.0060545026450062175
2                        0.0016363636363636363    -0.00590133475612443
2                        0.0016565656565656567    -0.005725344188000197
2                        0.0016767676767676769    -0.005525141387513832
2                        0.001696969696969697     -0.005304117750959505
2                        0.0017171717171717172    -0.0050599806038547235
2                        0.0017373737373737373    -0.004797628025546276
2                        0.0017575757575757577    -0.004513304257119637
2                        0.0017777777777777779    -0.0042140641910739084
2                        0.001797979797979798     -0.0038938603948411865
2                        0.0018181818181818182    -0.00356287406006692
2                        0.0018383838383838383    -0.003211545746426075
2                        0.0018585858585858587    -0.0028529760578873123
2                        0.0018787878787878789    -0.002477996339960222
2                        0.001898989898989899     -0.0020955116047732454
2                        0.0019191919191919192    -0.0017055830882440682
2                        0.0019393939393939396    -0.0013079831828962298
2                        0.0019595959595959597    -9.048941401585255E-4
2                        0.00197979797979798      -4.982615709822382E-4
2                        0.002                    -8.971482717917698E-5
3                        0                        0
3                        2.0202020202020203E-5    3.8672587934874804E-4
3                        4.0404040404040405E-5    7.892663187350475E-4
3                        6.060606060606061E-5     0.0011923360165137019
3                        8.080808080808081E-5     0.001592948913837608
3                        1.0101010101010101E-4    0.001989589779354644
3                        1.2121212121212122E-4    0.002379159645754185
3                        1.414141414141414E-4     0.0027595447635347676
3                        1.6161616161616162E-4    0.003129332718521831
3                        1.8181818181818183E-4    0.0034873018298991264
3                        2.0202020202020202E-4    0.0038316112495610307
3                        2.2222222222222223E-4    0.004160748268212645
3                        2.4242424242424245E-4    0.004473492153440536
3                        2.6262626262626266E-4    0.004768562112336937
3                        2.828282828282828E-4     0.005044574995780458
3                        3.0303030303030303E-4    0.005300362083192419
3                        3.2323232323232324E-4    0.005535043678401047
3                        3.4343434343434346E-4    0.005747720316293468
3                        3.6363636363636367E-4    0.005937154020472073
3                        3.8383838383838383E-4    0.006102533523632554
3                        4.0404040404040404E-4    0.0062437903625339325
3                        4.2424242424242425E-4    0.006360224674281156
3                        4.4444444444444447E-4    0.006450788034038238
3                        4.646464646464647E-4     0.006515183008432201
3                        4.848484848484849E-4     0.006553712891134366
3                        5.05050505050505E-4      0.0065661108976698265
3                        5.252525252525253E-4     0.006551805458224194
3                        5.454545454545455E-4     0.0065110707563233
3                        5.656565656565656E-4     0.00644426520452808
3                        5.858585858585859E-4     0.006351566918626453
3                        6.060606060606061E-4     0.006233257468075547
3                        6.262626262626263E-4     0.006089886636696162
3                        6.464646464646465E-4     0.005922055159892885
3                        6.666666666666666E-4     0.005730382229546781
3                        6.868686868686869E-4     0.005515605095490074
3                        7.070707070707071E-4     0.005278651183819912
3                        7.272727272727273E-4     0.0050205267398339085
3                        7.474747474747475E-4     0.004742120234514565
3                        7.676767676767677E-4     0.004444496864160333
3                        7.878787878787879E-4     0.004129133241139676
3                        8.080808080808081E-4     0.0037973777407207575
3                        8.282828282828283E-4     0.0034500716740816628
3                        8.484848484848485E-4     0.003088619750946121
3                        8.686868686868687E-4     0.0027150174314838423
3                        8.888888888888889E-4     0.0023307377724193184
3                        9.090909090909091E-4     0.0019367974303434897
3                        9.292929292929294E-4     0.001534845995592719
3                        9.494949494949495E-4     0.001127001304775155
3                        9.696969696969698E-4     7.148050799246262E-4
3                        9.8989898989899E-4       2.994456440351831E-4
3                        0.00101010101010101      -1.171687653311445E-4
3                        0.0010303030303030303    -5.331196297267075E-4
3                        0.0010505050505050506    -9.469649728198958E-4
3                        0.0010707070707070708    -0.0013572295563883032
3                        0.001090909090909091     -0.0017618993441347877
3                        0.0011111111111111111    -0.0021591831017916787
3                        0.0011313131313131313    -0.002547969783247904
3                        0.0011515151515151516    -0.002926870252092829
3                        0.0011717171717171718    -0.003293568235801016
3                        0.001191919191919192     -0.0036468676368894386
3                        0.0012121212121212121    -0.003985693012546329
3                        0.0012323232323232323    -0.004308441748818009
3                        0.0012525252525252527    -0.004613921092527311
3                        0.0012727272727272728    -0.0049006981210014035
3                        0.001292929292929293     -0.005167870588058893
3                        0.0013131313131313131    -0.0054140957942223865
3                        0.0013333333333333333    -0.005638698510453481
3                        0.0013535353535353537    -0.005840367424294921
3                        0.0013737373737373738    -0.006018804844921533
3                        0.001393939393939394     -0.0061726413496736195
3                        0.0014141414141414141    -0.006302072975856783
3                        0.0014343434343434343    -0.006405768810325928
3                        0.0014545454545454547    -0.00648373966893255
3                        0.0014747474747474748    -0.00653559547362936
3                        0.001494949494949495     -0.006561252310975917
3                        0.0015151515151515152    -0.00656040267487128
3                        0.0015353535353535353    -0.006533230425586576
3                        0.0015555555555555557    -0.006479593619568907
3                        0.0015757575757575758    -0.006400056702019605
3                        0.001595959595959596     -0.006294537767613332
3                        0.0016161616161616162    -0.0061639855655725995
3                        0.0016363636363636363    -0.006008221198539426
3                        0.0016565656565656567    -0.005828733668815903
3                        0.0016767676767676769    -0.005625117606955905
3                        0.001696969696969697     -0.005399324719604802
3                        0.0017171717171717172    -0.005151842620429264
3                        0.0017373737373737373    -0.004883426340758378
3                        0.0017575757575757577    -0.004595289622584657
3                        0.0017777777777777779    -0.0042887547067753905
3                        0.001797979797979798     -0.003964880407206909
3                        0.0018181818181818182    -0.0036251846614410556
3                        0.0018383838383838383    -0.0032706869275511367
3                        0.0018585858585858587    -0.0029032109991272157
3                        0.0018787878787878789    -0.002523923650269906
3                        0.001898989898989899     -0.002134636005322142
3                        0.0019191919191919192    -0.0017365065868763813
3                        0.0019393939393939396    -0.001331691254780836
3                        0.0019595959595959597    -9.21185399888079E-4
3                        0.00197979797979798      -5.073012169503194E-4
3                        0.002                    -9.14452115237404E-5
4                        0                        0
4                        2.0202020202020203E-5    4.039366545886445E-4
4                        4.0404040404040405E-5    8.17661130611952E-4
4                        6.060606060606061E-5     0.001230197885370919
4                        8.080808080808081E-5     0.0016391653697272251
4                        1.0101010101010101E-4    0.002043455440168143
4                        1.2121212121212122E-4    0.002439989296755365
4                        1.414141414141414E-4     0.0028266862680004583
4                        1.6161616161616162E-4    0.003202228130817556
4                        1.8181818181818183E-4    0.003565441919233642
4                        2.0202020202020202E-4    0.003914494690261127
4                        2.2222222222222223E-4    0.0042479088118196635
4                        2.4242424242424245E-4    0.0045644822124412876
4                        2.6262626262626266E-4    0.0048629443885595414
4                        2.828282828282828E-4     0.005141899404625783
4                        3.0303030303030303E-4    0.005400177820170802
4                        3.2323232323232324E-4    0.005636912891869094
4                        3.4343434343434346E-4    0.005851213240092421
4                        3.6363636363636367E-4    0.006041816933742578
4                        3.8383838383838383E-4    0.006207911471059818
4                        4.0404040404040404E-4    0.006349467367235915
4                        4.2424242424242425E-4    0.006465788299365949
4                        4.4444444444444447E-4    0.006555795536370987
4                        4.646464646464647E-4     0.006619196342139289
4                        4.848484848484849E-4     0.006656333942913775
4                        5.05050505050505E-4      0.00666695040876709
4                        5.252525252525253E-4     0.006650456039940419
4                        5.454545454545455E-4     0.006607140295928295
4                        5.656565656565656E-4     0.006537384028899472
4                        5.858585858585859E-4     0.006441376060069691
4                        6.060606060606061E-4     0.006319408466222583
4                        6.262626262626263E-4     0.00617204940962955
4                        6.464646464646465E-4     0.005999916181084176
4                        6.666666666666666E-4     0.00580364421132831
4                        6.868686868686869E-4     0.0055839889658588744
4                        7.070707070707071E-4     0.005341899861838682
4                        7.272727272727273E-4     0.005078405331506216
4                        7.474747474747475E-4     0.004794409861384031
4                        7.676767676767677E-4     0.0044909994657917375
4                        7.878787878787879E-4     0.004169682160195797
4                        8.080808080808081E-4     0.0038318325926238054
4                        8.282828282828283E-4     0.003478301588742603
4                        8.484848484848485E-4     0.003110519062316246
4                        8.686868686868687E-4     0.002730520746074579
4                        8.888888888888889E-4     0.0023398044939647675
4                        9.090909090909091E-4     0.0019393990627532532
4                        9.292929292929294E-4     0.0015309804905790669
4                        9.494949494949495E-4     0.0011167037104892917
4                        9.696969696969698E-4     6.981347344972704E-4
4                        9.8989898989899E-4       2.764773457410055E-4
4                        0.00101010101010101      -1.4633221194124604E-4
4                        0.0010303030303030303    -5.683459189593019E-4
4                        0.0010505050505050506    -9.881001498323163E-4
4                        0.0010707070707070708    -0.0014040996450174709
4                        0.001090909090909091     -0.001814304853526916
4                        0.0011111111111111111    -0.0022167310245170923
4                        0.0011313131313131313    -0.002610717514985073
4                        0.0011515151515151516    -0.0029948970188013817
4                        0.0011717171717171718    -0.003365594639906326
4                        0.001191919191919192     -0.003722435641794059
4                        0.0012121212121212121    -0.004065819744770406
4                        0.0012323232323232323    -0.004393000353855097
4                        0.0012525252525252527    -0.004700989946482522
4                        0.0012727272727272728    -0.004989953776110678
4                        0.001292929292929293     -0.0052602204040058985
4                        0.0013131313131313131    -0.005508701891777042
4                        0.0013333333333333333    -0.005734942686088898
4                        0.0013535353535353537    -0.0059381171829348735
4                        0.0013737373737373738    -0.006117292263537872
4                        0.001393939393939394     -0.006271803494427283
4                        0.0014141414141414141    -0.006401150679480024
4                        0.0014343434343434343    -0.006504750778570238
4                        0.0014545454545454547    -0.006582066972472902
4                        0.0014747474747474748    -0.006632846135937799
4                        0.001494949494949495     -0.006657054658761567
4                        0.0015151515151515152    -0.006654462968674432
4                        0.0015353535353535353    -0.0066247998748917665
4                        0.0015555555555555557    -0.006568448136982196
4                        0.0015757575757575758    -0.006486006622082351
4                        0.001595959595959596     -0.006377455273082157
4                        0.0016161616161616162    -0.006242858540017387
4                        0.0016363636363636363    -0.006083117942217333
4                        0.0016565656565656567    -0.005899220157843922
4                        0.0016767676767676769    -0.005691548103146184
4                        0.001696969696969697     -0.005460628012431895
4                        0.0017171717171717172    -0.0052077475199037255
4                        0.0017373737373737373    -0.004934205250356651
4                        0.0017575757575757577    -0.004640746947792599
4                        0.0017777777777777779    -0.004328303206570386
4                        0.001797979797979798     -0.003998485134838284
4                        0.0018181818181818182    -0.003652844308909085
4                        0.0018383838383838383    -0.003292423706289455
4                        0.0018585858585858587    -0.002918477908061704
4                        0.0018787878787878789    -0.002532856656928935
4                        0.001898989898989899     -0.0021372842339287233
4                        0.0019191919191919192    -0.0017330156222640312
4                        0.0019393939393939396    -0.0013215500028109402
4                        0.0019595959595959597    -9.04928643196753E-4
4                        0.00197979797979798      -4.8471712880683294E-4
4                        0.002                    -6.240896874388631E-5
5                        0                        0
5                        2.0202020202020203E-5    4.060138515045358E-4
5                        4.0404040404040405E-5    8.209598091049927E-4
5                        6.060606060606061E-5     0.0012344737838162476
5                        8.080808080808081E-5     0.001644270324408426
5                        1.0101010101010101E-4    0.0020492982844820653
5                        1.2121212121212122E-4    0.0024464835441390578
5                        1.414141414141414E-4     0.002833751038194812
5                        1.6161616161616162E-4    0.00320979550218064
5                        1.8181818181818183E-4    0.0035734508896204135
5                        2.0202020202020202E-4    0.0039228860773782015
5                        2.2222222222222223E-4    0.004256628595295853
5                        2.4242424242424245E-4    0.0045734794230925975
5                        2.6262626262626266E-4    0.004872170099432258
5                        2.828282828282828E-4     0.005151303841739626
5                        3.0303030303030303E-4    0.005409711604221333