% Model:              FEA_voltage_excitation.mph
% Version:            COMSOL 6.0.0.318
% Date:               Sep 29 2022, 14:11
% Table:              Table 1 - Point Evaluation 1
% Switch 1 index         Time (s)                 Magnetic flux density, z component (T), Point: 5Coil current (A), Point: 5
1                        0                        1.4619074280281056E-6    3.545217946337019E-4
1                        5.050505050505051E-5     0.006780330446575241     1.297735694306945
1                        1.0101010101010102E-4    0.01089748568418757      2.045276123836041
1                        1.5151515151515154E-4    0.013325362317159955     2.4804816670802987
1                        2.0202020202020205E-4    0.01477714372720049      2.7402646370160206
1                        2.525252525252526E-4     0.015658582395130443     2.8978009678870276
1                        3.030303030303031E-4     0.016194364571060098     2.9932749450118523
1                        3.535353535353536E-4     0.016523084063373737     3.0517417465228265
1                        4.040404040404041E-4     0.016728296010759133     3.0881986521402185
1                        4.545454545454546E-4     0.01685145576237032      3.1100655334488194
1                        5.050505050505052E-4     0.01692277142150997      3.1227096633854496
1                        5.555555555555557E-4     0.016964006752562828     3.1300143780872247
1                        6.060606060606062E-4     0.016988843308977396     3.1344153841992997
1                        6.565656565656567E-4     0.017004161460989195     3.137130852294769
1                        7.070707070707072E-4     0.01701333557768072      3.138756321735947
1                        7.575757575757577E-4     0.017018554055007844     3.13968043857408
1                        8.080808080808082E-4     0.017021568581156474     3.140214400764283
1                        8.585858585858587E-4     0.017023354455665676     3.140530848064561
1                        9.090909090909092E-4     0.01702445888015994      3.140726581700998
1                        9.595959595959597E-4     0.017025141746973012     3.140847583912624
1                        0.0010101010101010103    0.0170255510792697       3.1409201120390415
1                        0.0010606060606060607    0.017025790600893025     3.140962548589647
1                        0.0011111111111111113    0.017025931467582023     3.1409875143100754
1                        0.0011616161616161617    0.01702601774032338      3.1410027953614734
1                        0.0012121212121212123    0.01702607035552349      3.1410121291735886
1                        0.0012626262626262627    0.017026102004862573     3.141017727868192
1                        0.0013131313131313133    0.017026120191904567     3.1410209591536526
1                        0.0013636363636363637    0.01702613073078174      3.141022819052056
1                        0.0014141414141414144    0.017026137049153484     3.141023945885449
1                        0.0014646464646464648    0.017026141008594897     3.1410246410150315
1                        0.0015151515151515154    0.017026143345725973     3.1410250608077313
1                        0.0015656565656565658    0.0170261447002492       3.1410252907882494
1                        0.0016161616161616164    0.017026145397663034     3.141025424138486
1                        0.001666666666666667     0.017026145861199316     3.1410255058646794
1                        0.0017171717171717174    0.017026146184913854     3.1410255608625404
1                        0.001767676767676768     0.017026146379667824     3.1410255959449818
1                        0.0018181818181818184    0.017026146488396607     3.1410256146503674
1                        0.001868686868686869     0.017026146543616557     3.1410256247432087
1                        0.0019191919191919194    0.01702614657641386      3.141025630766136
1                        0.00196969696969697      0.017026146599860195     3.1410256346950254
1                        0.0020202020202020206    0.017026146612192414     3.141025637426911
1                        0.002070707070707071     0.017026146620494616     3.141025638603597
1                        0.0021212121212121214    0.017026146625745305     3.141025639401089
1                        0.002171717171717172     0.017026146628871294     3.141025639952329
1                        0.0022222222222222227    0.01702614663092876      3.1410256403168826
1                        0.002272727272727273     0.01702614663248143      3.1410256405920944
1                        0.0023232323232323234    0.017026146633491446     3.141025640771068
1                        0.002373737373737374     0.017026146634114434     3.1410256408814017
1                        0.0024242424242424247    0.017026146634483763     3.1410256409468333
1                        0.002474747474747475     0.01702614663467633      3.14102564098098
1                        0.0025252525252525255    0.017026146634774475     3.1410256409983752
1                        0.0025757575757575763    0.017026146634829775     3.14102564100817
1                        0.0026262626262626267    0.017026146634864896     3.141025641014395
1                        0.002676767676767677     0.01702614663488921      3.141025641018706
1                        0.0027272727272727275    0.017026146634905058     3.1410256410215123
1                        0.0027777777777777783    0.017026146634914776     3.1410256410232353
1                        0.0028282828282828287    0.017026146634920525     3.141025641024252
1                        0.002878787878787879     0.017026146634923703     3.1410256410248163
1                        0.0029292929292929295    0.017026146634925486     3.141025641025132
1                        0.0029797979797979803    0.01702614663492656      3.1410256410253212
1                        0.0030303030303030307    0.012757023889265728     2.3111206808886258
1                        0.003080808080808081     0.007697454933078354     1.3794366220792453
1                        0.0031313131313131315    0.004551358864937275     0.8110698676985962
1                        0.0031818181818181824    0.00266610176512213      0.4736696517987585
1                        0.0032323232323232328    0.0015863273016577483    0.28151641974386654
1                        0.003282828282828283     9.557505168016142E-4     0.16954667656106084
1                        0.003333333333333334     5.745249498607915E-4     0.10187813368509867
1                        0.0033838383838383844    3.436498719138557E-4     0.06091900615066927
1                        0.0034343434343434348    2.0560929510180255E-4    0.036443158829871536
1                        0.003484848484848485     1.2303042793234233E-4    0.021804426586474652
1                        0.003535353535353536     7.314999229473447E-5     0.01296252743296429
1                        0.0035858585858585864    4.3074514210414504E-5    0.007631713959661827
1                        0.003636363636363637     2.5409635108910192E-5    0.004501910732410522
1                        0.003686868686868687     1.519564659989411E-5     0.002692637053579592
1                        0.003737373737373738     9.096497479709275E-6     0.0016119991521320138
1                        0.0037878787878787884    5.400782308285158E-6     9.570011488834134E-4
1                        0.003838383838383839     3.167870786254967E-6     5.612912157027806E-4
1                        0.003888888888888889     1.8573498869870745E-6    3.29106670795353E-4
1                        0.00393939393939394      1.1072036204562083E-6    1.9619612847059472E-4
1                        0.0039898989898989904    6.648647612445574E-7     1.1780931919891216E-4
1                        0.004040404040404041     3.9577122415001927E-7    7.012527668048695E-5
1                        0.004090909090909091     2.3180615120556677E-7    4.1073615031166666E-5
1                        0.004141414141414142     1.3571215147916335E-7    2.4048049570536316E-5
1                        0.004191919191919193     8.100038469689825E-8     1.4353607147689649E-5
1                        0.004242424242424243     4.8709268691878517E-8    8.631141454968398E-6
1                        0.004292929292929294     2.891347044958965E-8     5.123187432529979E-6
1                        0.004343434343434344     1.7022653075285855E-8    3.0165405047666743E-6
1                        0.0043939393939393945    1.0156691114565701E-8    1.799844410608398E-6
1                        0.004444444444444445     6.140256710851458E-9     1.088071629611528E-6
1                        0.004494949494949495     3.74711230845718E-9      6.640015127468406E-7
1                        0.004545454545454546     2.2819233309761782E-9    4.043558907426369E-7
1                        0.004595959595959597     1.3865052298968833E-9    2.4569146124287667E-7
1                        0.004646464646464647     8.358692954109767E-10    1.4811781849163116E-7
1                        0.004696969696969698     4.992279602604553E-10    8.846283323053908E-8
1                        0.004747474747474748     2.9688686806851395E-10   5.2611155692826444E-8
1                        0.0047979797979797985    1.7694876506855262E-10   3.1353267987919036E-8
1                        0.004848484848484849     1.0569491413888472E-10   1.8731471597554995E-8
1                        0.004898989898989899     6.305101609353174E-11    1.1172357675765637E-8
1                        0.00494949494949495      3.775633982383851E-11    6.6904137235680046E-9
1                        0.005000000000000001     2.2841730920687447E-11   4.048361763163197E-9
2                        0                        1.4632052015651852E-6    3.544277654932018E-4
2                        5.050505050505051E-5     0.007628123132220643     1.2451138688191836
2                        1.0101010101010102E-4    0.012471493071209552     1.988423253218837
2                        1.5151515151515154E-4    0.015450088208083048     2.4355476757108536
2                        2.0202020202020205E-4    0.017254618615512755     2.701778720274231
2                        2.525252525252526E-4     0.01836463808102338      2.8637453559746877
2                        3.030303030303031E-4     0.0190551513000895       2.9634868160571193
2                        3.535353535353536E-4     0.019498796877733288     3.027221334670971
2                        4.040404040404041E-4     0.019786338751649764     3.068306076469507
2                        4.545454545454546E-4     0.019972217972224465     3.094696828083731
2                        5.050505050505052E-4     0.020091608628640387     3.1115238848866493
2                        5.555555555555557E-4     0.020167931852786505     3.1221987038597367
2                        6.060606060606062E-4     0.02021669819113739      3.128970312398233
2                        6.565656565656567E-4     0.02024794696589463      3.1332823169727684
2                        7.070707070707072E-4     0.020268050732484486     3.136041472291099
2                        7.575757575757577E-4     0.02028123033533925      3.1378429463824173
2                        8.080808080808082E-4     0.02028988265287631      3.1390206827652953
2                        8.585858585858587E-4     0.020295447824917302     3.1397739039386003
2                        9.090909090909092E-4     0.02029894025149034      3.1402431494658822
2                        9.595959595959597E-4     0.020301100164589924     3.1405311340113666
2                        0.0010101010101010103    0.02030245129485284      3.1407102249874956
2                        0.0010606060606060607    0.02030331638128388      3.140824497492994
2                        0.0011111111111111113    0.020303873262287365     3.1408978237804805
2                        0.0011616161616161617    0.020304225139607404     3.1409439040867726
2                        0.0012121212121212123    0.020304443672121447     3.14097231596929
2                        0.0012626262626262627    0.020304582211540967     3.140990258419164
2                        0.0013131313131313133    0.020304675877315537     3.1410024172746596
2                        0.0013636363636363637    0.020304740367027015     3.1410108171890676
2                        0.0014141414141414144    0.020304783064045914     3.1410163731270835
2                        0.0014646464646464648    0.020304809403106965     3.1410197810104656
2                        0.0015151515151515154    0.020304825437218243     3.141021840851971
2                        0.0015656565656565658    0.020304835513027267     3.141023128842534
2                        0.0016161616161616164    0.020304842110300637     3.141023970836527
2                        0.001666666666666667     0.02030484653169621      3.1410245353527833
2                        0.0017171717171717174    0.020304849578086304     3.141024924851709
2                        0.001767676767676768     0.02030485161714264      3.1410251853886533
2                        0.0018181818181818184    0.020304852926026087     3.141025352156057
2                        0.001868686868686869     0.020304853733133864     3.141025454647485
2                        0.0019191919191919194    0.020304854236825275     3.141025518453978
2                        0.00196969696969697      0.020304854562091117     3.1410255596185994
2                        0.0020202020202020206    0.020304854778109477     3.141025586957155
2                        0.002070707070707071     0.020304854923145772     3.1410256053143737
2                        0.0021212121212121214    0.02030485502222553      3.141025617854287
2                        0.002171717171717172     0.020304855088034653     3.141025626176653
2                        0.0022222222222222227    0.020304855130455084     3.141025631534779
2                        0.002272727272727273     0.020304855157166155     3.1410256349047403
2                        0.0023232323232323234    0.020304855174121166     3.1410256370426475
2                        0.002373737373737374     0.020304855185145566     3.141025638432731
2                        0.0024242424242424247    0.02030485519243628      3.141025639352008
2                        0.002474747474747475     0.020304855197214172     3.141025639954127
2                        0.0025252525252525255    0.020304855200204742     3.1410256403304833
2                        0.0025757575757575763    0.02030485520206842      3.1410256405648056
2                        0.0026262626262626267    0.02030485520326851      3.141025640715721
2                        0.002676767676767677     0.020304855204106177     3.141025640821176
2                        0.0027272727272727275    0.020304855204686993     3.1410256408943202
2                        0.0027777777777777783    0.02030485520507147      3.141025640942702
2                        0.0028282828282828287    0.0203048552053076       3.141025640972395
2                        0.002878787878787879     0.020304855205453387     3.141025640990704
2                        0.0029292929292929295    0.020304855205546507     3.141025641002402
2                        0.0029797979797979803    0.02030485520560865      3.1410256410102044
2                        0.0030303030303030307    0.015601286022044455     2.3589323097773383
2                        0.003080808080808081     0.009895089323484915     1.469706027175011
2                        0.0031313131313131315    0.00613728382532349      0.8983635519532669
2                        0.0031818181818181824    0.0038100553942059185    0.5511014622678515
2                        0.0032323232323232328    0.0023952073428801413    0.34334097510040906
2                        0.003282828282828283     0.0015119840265888412    0.21490209394525434
2                        0.003333333333333334     9.592016215911943E-4     0.1352782466394796
2                        0.0033838383838383844    6.088701059231499E-4     0.08523319583974831
2                        0.0034343434343434348    3.865318207666349E-4     0.05372372952585655
2                        0.003484848484848485     2.441539622856846E-4     0.033688923274904393
2                        0.003535353535353536     1.5383950932536722E-4    0.021075834027621095
2                        0.0035858585858585864    9.729174336531207E-5     0.01324219675902339
2                        0.003636363636363637     6.177957661002861E-5     0.0083589298507644
2                        0.003686868686868687     3.914069489102509E-5     0.005264335128490271
2                        0.003737373737373738     2.4757745545613398E-5    0.0033100071416088095
2                        0.0037878787878787884    1.571133095075575E-5     0.0020891682333413803
2                        0.003838383838383839     1.003735351326136E-5     0.0013287466081551597
2                        0.003888888888888889     6.423527497592235E-6     8.468690274869139E-4
2                        0.00393939393939394      4.104911248644648E-6     5.389274408260737E-4
2                        0.0039898989898989904    2.6187189006748917E-6    3.4234162216385545E-4
2                        0.004040404040404041     1.6744030889936736E-6    2.1805533203970385E-4
2                        0.004090909090909091     1.0791499212141624E-6    1.4013240122014967E-4
2                        0.004141414141414142     6.998602112450757E-7     9.066978074300052E-5
2                        0.004191919191919193     4.5344292003426494E-7    5.8593464217948566E-5
2                        0.004242424242424243     2.9253222006574807E-7    3.769302922536633E-5
2                        0.004292929292929294     1.89135574730782E-7      2.4317563410372174E-5
2                        0.004343434343434344     1.2323831482959136E-7    1.58264389921196E-5
2                        0.0043939393939393945    8.056213509631979E-8     1.0333535879932984E-5
2                        0.004444444444444445     5.222924436220731E-8     6.685335228276042E-6
2                        0.004494949494949495     3.355245416668614E-8     4.284059384509292E-6
2                        0.004545454545454546     2.155970642044366E-8     2.747660433901628E-6
2                        0.004595959595959597     1.394622755137353E-8     1.775446465082815E-6
2                        0.004646464646464647     9.053026239833223E-9     1.1513689729032935E-6
2                        0.004696969696969698     5.861287950653074E-9     7.444081474459595E-7
2                        0.004747474747474748     3.781373780450181E-9     4.795084739681242E-7
2                        0.0047979797979797985    2.449086757897673E-9     3.102453964873837E-7
2                        0.004848484848484849     1.602209064183568E-9     2.0290312093719498E-7
2                        0.004898989898989899     1.051512131559158E-9     1.3310924085199616E-7
2                        0.00494949494949495      6.832420479539714E-10    8.64036819186937E-8
2                        0.005000000000000001     4.4006189625085507E-10   5.5585294746394586E-8
3                        0                        1.463294947347594E-6     3.5442121346890206E-4
3                        5.050505050505051E-5     0.007763015095524869     1.2354206760947741
3                        1.0101010101010102E-4    0.012680256374191422     1.9789439802269855
3                        1.5151515151515154E-4    0.015708031022471793     2.428352613111541
3                        2.0202020202020205E-4    0.01754550229764408      2.696873455013897
3                        2.525252525252526E-4     0.018678251456849343     2.8604306993113435
3                        3.030303030303031E-4     0.019385135249587942     2.9611548373152727
3                        3.535353535353536E-4     0.019841313292069906     3.0254259393661265
3                        4.040404040404041E-4     0.020138872244959173     3.066820463298501
3                        4.545454545454546E-4     0.02033293233106891      3.0934266606607066
3                        5.050505050505052E-4     0.0204606594304794       3.1106716774106107
3                        5.555555555555557E-4     0.020544613524113617     3.1218172797444432
3                        6.060606060606062E-4     0.020599034606495963     3.1288960701432607
3                        6.565656565656567E-4     0.020633872510065494     3.1333147032432933
3                        7.070707070707072E-4     0.02065611195719784      3.1360536020984786
3                        7.575757575757577E-4     0.020670538780805957     3.1377779342449155
3                        8.080808080808082E-4     0.020680102905569174     3.1388896527000787
3                        8.585858585858587E-4     0.02068648013532149      3.139609484417119
3                        9.090909090909092E-4     0.02069070999175221      3.140070354235801
3                        9.595959595959597E-4     0.020693539587866752     3.140367369332118
3                        0.0010101010101010103    0.020695502940795772     3.1405682708077705
3                        0.0010606060606060607    0.020696910568566856     3.1407105987879516
3                        0.0011111111111111113    0.02069790745926961      3.140809563301251
3                        0.0011616161616161617    0.020698602347959096     3.140876601642343
3                        0.0012121212121212123    0.020699081117857877     3.140921080786343
3                        0.0012626262626262627    0.020699414979624277     3.140951083540944
3                        0.0013131313131313133    0.02069965332001944      3.1409720795125162
3                        0.0013636363636363637    0.02069982658268543      3.140987220717735
3                        0.0014141414141414144    0.02069995213051485      3.140998066759169
3                        0.0014646464646464648    0.020700041979734286     3.141005657459503
3                        0.0015151515151515154    0.020700106355361524     3.1410109545024083
3                        0.0015656565656565658    0.020700153480084825     3.141014789879542
3                        0.0016161616161616164    0.02070018868123838      3.141017683024177
3                        0.001666666666666667     0.020700214944518194     3.141019857994714
3                        0.0017171717171717174    0.020700234166990183     3.141021421573748
3                        0.001767676767676768     0.020700247986352345     3.141022520128573
3                        0.0018181818181818184    0.020700258021076768     3.141023314178738
3                        0.001868686868686869     0.020700265591289742     3.141023908238243
3                        0.0019191919191919194    0.02070027131937089      3.1410243605503916
3                        0.00196969696969697      0.02070027555653142      3.141024703903014
3                        0.0020202020202020206    0.020700278677093314     3.1410249536010038
3                        0.002070707070707071     0.0207002809770837       3.1410251314609297
3                        0.0021212121212121214    0.02070028265103331      3.1410252627741286
3                        0.002171717171717172     0.02070028388840436      3.141025360817611
3                        0.0022222222222222227    0.02070028482599394      3.1410254326705824
3                        0.002272727272727273     0.020700285518749133     3.141025486724159
3                        0.0023232323232323234    0.020700286015016445     3.1410255279870505
3                        0.002373737373737374     0.02070028640114973      3.141025556445203
3                        0.0024242424242424247    0.020700286690606008     3.1410255772422007
3                        0.002474747474747475     0.020700286891129578     3.1410255944134926
3                        0.0025252525252525255    0.020700287045095862     3.1410256066504707
3                        0.0025757575757575763    0.020700287163809478     3.141025615123737
3                        0.0026262626262626267    0.020700287248981285     3.141025621698133
3                        0.002676767676767677     0.02070028731196334      3.141025626625937
3                        0.0027272727272727275    0.02070028735918487      3.141025630275458
3                        0.0027777777777777783    0.020700287394515918     3.1410256330026076
3                        0.0028282828282828287    0.020700287420971297     3.14102563506169
3                        0.002878787878787879     0.020700287440858292     3.141025636588238
3                        0.0029292929292929295    0.020700287455682694     3.1410256377229935
3                        0.0029797979797979803    0.02070028746658817      3.141025638573845
3                        0.0030303030303030307    0.01569110823201493      2.33163664796986
3                        0.003080808080808081     0.009744328176127744     1.4210182314115358
3                        0.0031313131313131315    0.006026922023944649     0.8651605018768301
3                        0.0031818181818181824    0.003753591922594475     0.5306539767691342
3                        0.0032323232323232328    0.0023735779906134706    0.3304961472300059
3                        0.003282828282828283     0.001513632869319337     0.20733115275311137
3                        0.003333333333333334     9.679114752690387E-4     0.13016646927922826
3                        0.0033838383838383844    6.212993861009933E-4     0.08188158194794419
3                        0.0034343434343434348    4.003396267902568E-4     0.05160249281260678
3                        0.003484848484848485     2.5872496376312253E-4    0.03253530703183798
3                        0.003535353535353536     1.6808900945772156E-4    0.020574015362554363
3                        0.0035858585858585864    1.1076042587827746E-4    0.01319446657144146
3                        0.003636363636363637     7.415517228905383E-5     0.008607987125958786
3                        0.003686868686868687     4.9872327856102184E-5    0.005631603477880154
3                        0.003737373737373738     3.3540211045483966E-5    0.003671619072642425
3                        0.0037878787878787884    2.2843934950920006E-5    0.0024279455450173463
3                        0.003838383838383839     1.5864929742093758E-5    0.0016462447109023967
3                        0.003888888888888889     1.1045670288441959E-5    0.0011178352334677087
3                        0.00393939393939394      7.669636412649832E-6     7.540481456498987E-4
3                        0.0039898989898989904    5.3579841554054565E-6    5.11995018532098E-4
3                        0.004040404040404041     3.810612321556679E-6     3.5673730753516154E-4
3                        0.004090909090909091     2.7276654773904383E-6    2.5068286522936185E-4
3                        0.004141414141414142     1.944516741400491E-6     1.748273335226318E-4
3                        0.004191919191919193     1.3934569635850632E-6    1.2277407332361853E-4
3                        0.004242424242424243     1.0054464847793912E-6    8.710908637461432E-5
3                        0.004292929292929294     7.301585948402147E-7     6.23808559049168E-5
3                        0.004343434343434344     5.308452402340378E-7     4.475131728484266E-5
3                        0.0043939393939393945    3.871681325614067E-7     3.2254134472925416E-5
3                        0.004444444444444445     2.831836515215941E-7     2.335006727498714E-5
3                        0.004494949494949495     2.071491104123448E-7     1.6922331017979854E-5
3                        0.004545454545454546     1.5155329169392261E-7    1.2275831093142293E-5
3                        0.004595959595959597     1.1111838729264068E-7    8.934637136692668E-6
3                        0.004646464646464647     8.172920010833442E-8     6.532087746935567E-6
3                        0.004696969696969698     6.030435445602619E-8     4.796495321943611E-6
3                        0.004747474747474748     4.454848967937102E-8     3.528529617357215E-6
3                        0.0047979797979797985    3.2914392445266856E-8    2.597171962566399E-6
3                        0.004848484848484849     2.4354525311567616E-8    1.9157464224935227E-6
3                        0.004898989898989899     1.8076838913180634E-8    1.4188158061699652E-6
3                        0.00494949494949495      1.3441497458544594E-8    1.0531553512553197E-6
3                        0.005000000000000001     9.979359857501224E-9     7.80273029169549E-7
4                        0                        1.4633499311251919E-6    3.544171960100751E-4
4                        5.050505050505051E-5     0.007896620182907975     1.2274391998455219
4                        1.0101010101010102E-4    0.012866531822146374     1.971634001495082
4                        1.5151515151515154E-4    0.015917039102176015     2.422371612491164
4                        2.0202020202020205E-4    0.01776916192875032      2.6931001342844776
4                        2.525252525252526E-4     0.018906549400839488     2.857777076564608
4                        3.030303030303031E-4     0.019619518164850164     2.9599640185879004
4                        3.535353535353536E-4     0.020078447960342173     3.025038086431506
4                        4.040404040404041E-4     0.020377038871528575     3.066811580659638
4                        4.545454545454546E-4     0.020571506965193352     3.0935477674027463
4                        5.050505050505052E-4     0.02069985346324242      3.1108214390332942
4                        5.555555555555557E-4     0.020784534136696238     3.121911797870397
4                        6.060606060606062E-4     0.020839945796476828     3.128907286054738
4                        6.565656565656567E-4     0.020875974851305386     3.1332324444151527