% Model:              FEA.mph
% Version:            COMSOL 6.0.0.318
% Date:               Jul 31 2022, 07:55
% Dimension:          2
% Nodes:              500
% Expressions:        4
% Description:        Magnetic flux density, r component, Magnetic flux density, z component
% Length unit:        m
% r                       z                        mf.Br (T) @ freq=20000, Switch 1=Titanium beta-21S mf.Bz (T) @ freq=20000, Switch 1=Titanium beta-21S mf.Br (T) @ freq=20000, Switch 1=Air mf.Bz (T) @ freq=20000, Switch 1=Air
0.006                     0.0025                   -0.0034129778047752605-1.4180895795445973E-4i     -4.4539694077485865E-4-1.4724976756253844E-4i     -0.0032877281871853794   -2.328179323805679E-4
0.00604809619238477       0.0025                   -0.003331817809716039-1.4193878571703856E-4i      -5.275372689680041E-4-1.4536343530160647E-4i      -0.0032060681529938375   -3.1622654994965696E-4
0.006096192384769539      0.0025                   -0.003250657814656814-1.420686134796174E-4i       -6.096482100839294E-4-1.4347538701256601E-4i      -0.003124408118802288    -3.996074396770558E-4
0.006144288577154309      0.0025                   -0.00314845098729906-1.4210900510950133E-4i       -7.226573523719483E-4-1.4179338760566927E-4i      -0.0030217462003596183   -5.138419243846028E-4
0.006192384769539079      0.0025                   -0.0030512083019348653-1.4207015585792506E-4i     -7.208152674770859E-4-1.4015903155569322E-4i      -0.002924117612998644    -5.131936356933724E-4
0.0062404809619238475     0.0025                   -0.002953965616570675-1.420313066063488E-4i       -7.183012193351906E-4-1.3852499744550347E-4i      -0.0028264890256376727   -5.118743334169783E-4
0.006288577154308617      0.0025                   -0.0028567229312064773-1.4199245735477232E-4i     -7.151306258410238E-4-1.368912778883364E-4i       -0.0027288604382766984   -5.098994136606338E-4
0.006336673346693387      0.0025                   -0.002759480245842283-1.4195360810319608E-4i      -7.113184367938804E-4-1.3525786572169467E-4i      -0.0026312318509157245   -5.072838050956077E-4
0.0063847695390781565     0.0025                   -0.0026622375604780798-1.4191475885161998E-4i     -7.068791515282922E-4-1.3362475399889971E-4i      -0.0025336032635547446   -5.040419865650217E-4
0.006432865731462926      0.0025                   -0.0025649948751138903-1.418759096000437E-4i      -7.018268357538288E-4-1.3199193598102384E-4i      -0.002435974676193777    -5.001880038998951E-4
0.006480961923847696      0.0025                   -0.0024677521897496927-1.418370603484675E-4i      -6.961751376450855E-4-1.3035940512918208E-4i      -0.0023383460888327977   -4.957354859863245E-4
0.006529058116232465      0.0025                   -0.002370509504385502-1.41798211096891E-4i        -6.899373032205063E-4-1.2872715509716382E-4i      -0.0022407175014718273   -4.906976601226319E-4
0.006577154308617234      0.0025                   -0.002273266819021307-1.4175936184531498E-4i      -6.831261910464257E-4-1.2709517972438818E-4i      -0.0021430889141108526   -4.85087366702594E-4
0.006625250501002004      0.0025                   -0.002309045438611544-1.4132736214056722E-4i      -7.667608817861406E-4-1.2519395831926905E-4i      -0.002178824392665382    -5.701585245618931E-4
0.0066733466933867735     0.0025                   -0.0022557290573362292-1.4114981944118496E-4i     -7.980549162970127E-4-1.233520155762686E-4i       -0.0021251664927934323   -6.027670193879942E-4
0.006721442885771543      0.0025                   -0.0022024126760609147-1.409722767418027E-4i      -8.290756159932487E-4-1.2150888157547427E-4i      -0.002071508592921493    -6.351036952826079E-4
0.006769539078156313      0.0025                   -0.002149096294785602-1.4079473404242046E-4i      -8.598288068389264E-4-1.196645817078177E-4i       -0.0020178506930495464   -6.671743458996973E-4
0.006817635270541082      0.0025                   -0.0020957799135102873-1.406171913430382E-4i      -8.90320150397006E-4-1.178191406477287E-4i        -0.0019641927931775965   -6.989846014038674E-4
0.006865731462925852      0.0025                   -0.0020424635322349796-1.404396486436555E-4i      -9.205551495877521E-4-1.1597258237823581E-4i      -0.0019105348933056605   -7.305399341967877E-4
0.006913827655310622      0.0025                   -0.002009996425123751-1.4001336205000188E-4i      -8.448128793359436E-4-1.1506042457119019E-4i      -0.0018779100806442903   -6.55514575870706E-4
0.006961923847695391      0.0025                   -0.0019678157983493605-1.3967164323467523E-4i     -8.453510417267677E-4-1.1347668263366827E-4i      -0.0018355051206280053   -6.57300497848906E-4
0.00701002004008016       0.0025                   -0.0019256351715749636-1.3932992441934857E-4i     -8.454650006286728E-4-1.1189355980304067E-4i      -0.0017931001606117224   -6.586631245184972E-4
0.00705811623246493       0.0025                   -0.0018834545448005637-1.3898820560402268E-4i     -8.45163428003962E-4-1.1031104342294864E-4i       -0.0017506952005954457   -6.596111092759004E-4
0.0071062124248496995     0.0025                   -0.0018412739180261742-1.386464867886958E-4i      -8.444547610409945E-4-1.0872912117967508E-4i      -0.0017082902405791559   -6.601528712462507E-4
0.007154308617234469      0.0025                   -0.0017990932912517752-1.3830476797336959E-4i     -8.433472100457522E-4-1.0714778109062874E-4i      -0.0016658852805628722   -6.602966031580197E-4
0.007202404809619239      0.0025                   -0.0017569126644773744-1.379630491580437E-4i      -8.418487660172101E-4-1.0556701149328805E-4i      -0.0016234803205465841   -6.600502789021916E-4
0.007250501002004008      0.0025                   -0.001683872289953756-1.3808040418246363E-4i      -8.503859282246414E-4-1.0382044007253621E-4i      -0.0015499995408277962   -6.699097955988388E-4
0.007298597194388778      0.0025                   -0.0016436224471035646-1.3780789260557665E-4i     -8.434040266765301E-4-1.0224790417430296E-4i      -0.0015095365165852916   -6.641420566678637E-4
0.007346693386773547      0.0025                   -0.0016033726042533748-1.3753538102868968E-4i     -8.360219991105171E-4-1.0067597311466838E-4i      -0.0014690734923427833   -6.579747144628829E-4
0.007394789579158317      0.0025                   -0.0015631227614031815-1.3726286945180304E-4i     -8.282476528635411E-4-9.910463509190354E-5i       -0.001428610468100279    -6.514155661209368E-4
0.007442885771543086      0.0025                   -0.0015228729185529923-1.3699035787491625E-4i     -8.200885934673742E-4-9.753387860933343E-5i       -0.0013881474438577734   -6.444722072375788E-4
0.007490981963927856      0.0025                   -0.0014826230757028047-1.3671784629802928E-4i     -8.115522311271476E-4-9.596369246553916E-5i       -0.0013476844196152723   -6.371520383368836E-4
0.0075390781563126254     0.0025                   -0.001442373232852611-1.364453347211423E-4i       -8.026457869518332E-4-9.439406574494794E-5i       -0.0013072213953727657   -6.294622710938264E-4
0.007587174348697395      0.0025                   -0.0014117826065902141-1.360663103010058E-4i      -8.244931651861305E-4-9.251166810007806E-5i       -0.0012765000925203142   -6.528551243102707E-4
0.007635270541082165      0.0025                   -0.001382148517745067-1.3568031141986028E-4i      -8.175507231434609E-4-9.110441993058678E-5i       -0.0012467406698243831   -6.471044356772635E-4
0.0076833667334669335     0.0025                   -0.0013525144288999268-1.352943125387141E-4i      -8.10271793504674E-4-8.969873666853663E-5i        -0.0012169812471284668   -6.410175173828064E-4
0.007731462925851704      0.0025                   -0.0013228803400547806-1.3490831365756812E-4i     -8.026626559760565E-4-8.829458910881328E-5i       -0.0011872218244325383   -6.346006443194825E-4
0.007779559118236473      0.0025                   -0.0012932462512096378-1.3452231477642214E-4i     -7.947294349698039E-4-8.68919487685281E-5i        -0.0011574624017366211   -6.278599362048076E-4
0.007827655310621243      0.0025                   -0.0012636121623644924-1.3413631589527639E-4i     -7.864781043748851E-4-8.549078786483523E-5i       -0.001127702979040697    -6.208013623484732E-4
0.007875751503006012      0.0025                   -0.001231545451185141-1.336408951596443E-4i       -7.781251634844395E-4-8.402251826853413E-5i       -0.001095618812614654    -6.136997566789502E-4
0.007923847695390781      0.0025                   -0.0012059079174407171-1.3314680376429959E-4i     -7.737821226650807E-4-8.252066708676171E-5i       -0.0010698871451646783   -6.105989416476808E-4
0.007971943887775551      0.0025                   -0.0011802703836962906-1.3265271236895585E-4i     -7.691650777449087E-4-8.101960429095029E-5i       -0.0010441554777147009   -6.072246398297058E-4
0.008020040080160322      0.0025                   -0.0011546328499518676-1.3215862097361092E-4i     -7.642789583329238E-4-7.951931569724505E-5i       -0.0010184238102647278   -6.035817715270161E-4
0.00806813627254509       0.0025                   -0.0011289953162074463-1.3166452957826522E-4i     -7.591285764915833E-4-7.801978746000499E-5i       -9.926921428147564E-4    -5.996751397169986E-4
0.00811623246492986       0.0025                   -0.0011033577824630207-1.3117043818292127E-4i     -7.537186302196351E-4-7.652100606178074E-5i       -9.669604753647799E-4    -5.955094335286698E-4
0.00816432865731463       0.0025                   -0.0010777202487185934-1.3067634678757666E-4i     -7.480537068118597E-4-7.502295830365091E-5i       -9.412288079148016E-4    -5.910892315961005E-4
0.008212424849699399      0.0025                   -0.0010520933321919667-1.3019920527541494E-4i     -7.195775379061635E-4-7.42476454846278E-5i        -9.155043369454626E-4    -5.634137991801328E-4
0.00826052104208417       0.0025                   -0.0010322663615460856-1.2958753342030312E-4i     -7.167560224941001E-4-7.292619903266241E-5i       -8.956792185882299E-4    -5.61814504701421E-4
0.008308617234468938      0.0025                   -0.0010124393909002037-1.289758615651913E-4i      -7.137140838890843E-4-7.160638130515738E-5i       -8.758541002309933E-4    -5.59995153646233E-4
0.008356713426853707      0.0025                   -9.926124202543187E-4-1.2836418971007995E-4i      -7.104555279591825E-4-7.028816418025448E-5i       -8.560289818737559E-4    -5.579595455525909E-4
0.008404809619238477      0.0025                   -9.727854496084341E-4-1.2775251785496786E-4i      -7.069840734567607E-4-6.897152017979598E-5i       -8.362038635165202E-4    -5.557113929876641E-4
0.008452905811623246      0.0025                   -9.400735233656499E-4-1.27626163390782E-4i        -7.094343052741071E-4-6.739208570500378E-5i       -8.032253310417269E-4    -5.595131319702525E-4
0.008501002004008017      0.0025                   -9.230985659538062E-4-1.2709416510415768E-4i      -7.006578017161436E-4-6.60974463978541E-5i        -7.86256571799739E-4     -5.518965166617387E-4
0.008549098196392785      0.0025                   -9.061236085419566E-4-1.2656216681753335E-4i      -6.916512036744351E-4-6.480443201119075E-5i       -7.692878125577438E-4    -5.440497736328917E-4
0.008597194388777554      0.0025                   -8.891486511301151E-4-1.260301685309082E-4i       -6.824183728745951E-4-6.351301527362084E-5i       -7.523190533157563E-4    -5.359767651671332E-4
0.008645290581162325      0.0025                   -8.721736937182701E-4-1.2549817024428385E-4i      -6.729630851067324E-4-6.222316952062633E-5i       -7.353502940737654E-4    -5.276812675999831E-4
0.008693386773547095      0.0025                   -8.551987363064247E-4-1.249661719576594E-4i       -6.632890326026867E-4-6.093486867777343E-5i       -7.183815348317732E-4    -5.191669736966111E-4
0.008741482965931864      0.0025                   -8.382237788945796E-4-1.2443417367103448E-4i      -6.533998263347225E-4-5.964808724448297E-5i       -7.014127755897853E-4    -5.104374949508778E-4
0.008789579158316633      0.0025                   -8.21248821482735E-4-1.2390217538440983E-4i       -6.432989982387708E-4-5.836280027832617E-5i       -6.844440163477953E-4    -5.014963638088944E-4
0.008837675350701403      0.0025                   -8.042738640708876E-4-1.233701770977857E-4i       -6.329900033650791E-4-5.7078983379840826E-5i      -6.674752571058009E-4    -4.923470358199832E-4
0.008885771543086172      0.0025                   -7.916528593598E-4-1.2271531510163968E-4i         -6.308363961670655E-4-5.5790760482471964E-5i      -6.549530581249964E-4    -4.914071657320388E-4
0.008933867735470943      0.0025                   -7.784807755288512E-4-1.2209727697815444E-4i      -6.266158994807662E-4-5.4631537418468294E-5i      -6.41863693838969E-4     -4.88344845484689E-4
0.008981963927855711      0.0025                   -7.653086916979042E-4-1.2147923885466944E-4i      -6.222309417910421E-4-5.347436133669582E-5i       -6.287743295529393E-4    -4.851180233781128E-4
0.00903006012024048       0.0025                   -7.521366078669556E-4-1.2086120073118378E-4i      -6.176841509701236E-4-5.231919952904825E-5i       -6.156849652669107E-4    -4.8172932793735985E-4
0.00907815631262525       0.0025                   -7.389645240360083E-4-1.2024316260769803E-4i      -6.129780992002287E-4-5.1166019980573434E-5i      -6.025956009808832E-4    -4.781813319836354E-4
0.009126252505010021      0.0025                   -7.257924402050608E-4-1.1962512448421292E-4i      -6.08115304441021E-4-5.001479135120509E-5i        -5.89506236694853E-4     -4.7447655410212393E-4
0.00917434869739479       0.0025                   -7.126203563741113E-4-1.1900708636072729E-4i      -6.030982318509189E-4-4.8865482958074426E-5i      -5.764168724088257E-4    -4.706174600636415E-4
0.009222444889779559      0.0025                   -6.994482725431655E-4-1.1838904823724187E-4i      -5.979292951639154E-4-4.77180647583714E-5i        -5.633275081227964E-4    -4.666064642018064E-4
0.00927054108216433       0.0025                   -6.862761887122174E-4-1.1777101011375652E-4i      -5.926108580235378E-4-4.657250733274325E-5i       -5.502381438367671E-4    -4.6244593074733166E-4
0.009318637274549098      0.0025                   -6.731041048812714E-4-1.1715297199027111E-4i      -5.871452352755186E-4-4.542878186920362E-5i       -5.371487795507397E-4    -4.5813817512100827E-4
0.009366733466933869      0.0025                   -6.599320210503251E-4-1.1653493386678534E-4i      -5.815346942206159E-4-4.428686014754237E-5i       -5.24059415264707E-4     -4.536854651868371E-4
0.009414829659318637      0.0025                   -6.469454366500066E-4-1.155891936472884E-4i       -5.754126111140779E-4-4.3596826653507346E-5i      -5.113231103508663E-4    -4.484881975342583E-4
0.009462925851703406      0.0025                   -6.365241856406251E-4-1.1501836633208194E-4i      -5.658404745323861E-4-4.254784128313948E-5i       -5.010057466555131E-4    -4.39966469189524E-4
0.009511022044088177      0.0025                   -6.261029346312467E-4-1.1444753901687475E-4i      -5.56111517022859E-4-4.1500992616030216E-5i       -4.906883829601614E-4    -4.31287364649137E-4
0.009559118236472947      0.0025                   -6.15681683621861E-4-1.138767117016689E-4i        -5.462281056938437E-4-4.045624840005539E-5i       -4.8037101926480183E-4   -4.224532594028546E-4
0.009607214428857716      0.0025                   -6.052604326124808E-4-1.133058843864623E-4i       -5.3619256025226E-4-3.941357702894093E-5i         -4.700536555694479E-4    -4.1346648137114946E-4
0.009655310621242485      0.0025                   -5.967045674054706E-4-1.123848724779892E-4i       -5.308222823089491E-4-3.78072692017595E-5i        -4.618078056721081E-4    -4.0948488654389667E-4
0.009703406813627255      0.0025                   -5.886471308270322E-4-1.1173178364439112E-4i      -5.267117410245935E-4-3.685769013398912E-5i       -4.539320255023487E-4    -4.064438404320817E-4
0.009751503006012024      0.0025                   -5.805896942485888E-4-1.1107869481079334E-4i      -5.224858639250709E-4-3.5910569779812165E-5i      -4.4605624533258716E-4   -4.032870254061427E-4
0.009799599198396795      0.0025                   -5.725322576701469E-4-1.1042560597719566E-4i      -5.181463492064339E-4-3.496587193731126E-5i       -4.3818046516282453E-4   -4.0001614603904517E-4
0.009847695390781563      0.0025                   -5.644748210917071E-4-1.097725171435981E-4i       -5.136948618887394E-4-3.402356111180985E-5i       -4.303046849930632E-4    -3.966328736031888E-4
0.009895791583166332      0.0025                   -5.56417384513267E-4-1.091194283100002E-4i        -5.091330346222813E-4-3.308360249868523E-5i       -4.224289048233025E-4    -3.93138846879649E-4
0.009943887775551103      0.0025                   -5.483599479348287E-4-1.0846633947640257E-4i      -5.044624684703995E-4-3.2145961966681955E-5i      -4.1455312465354336E-4   -3.895356729439435E-4
0.009991983967935873      0.0025                   -5.403025113563844E-4-1.0781325064280483E-4i      -4.996847336697088E-4-3.121060604170454E-5i       -4.066773444837792E-4    -3.858249279290978E-4
0.010040080160320642      0.0025                   -5.322450747779445E-4-1.071601618092069E-4i       -4.948013703684555E-4-3.0277501891077047E-5i      -3.9880156431401897E-4   -3.8200815776678854E-4
0.01008817635270541       0.0025                   -5.241876381995025E-4-1.0650707297560965E-4i      -4.898138893437631E-4-2.9346617308253248E-5i      -3.909257841442559E-4    -3.780868789072786E-4
0.01013627254509018       0.0025                   -5.161302016210652E-4-1.0585398414201196E-4i      -4.8472377269845546E-4-2.8417920697962073E-5i     -3.83050003974495E-4     -3.7406257901885563E-4
0.01018436873747495       0.0025                   -5.080727650426243E-4-1.0520089530841379E-4i      -4.795324745381379E-4-2.749138106177332E-5i       -3.7517422380473845E-4   -3.6993671766745093E-4
0.01023246492985972       0.0025                   -5.000153284641807E-4-1.0454780647481648E-4i      -4.742414216291822E-4-2.6566967984070553E-5i      -3.672984436349732E-4    -3.657107269771095E-4
0.01028056112224449       0.0025                   -4.91957891885739E-4-1.0389471764121901E-4i       -4.688520140382306E-4-2.56446516184198E-5i        -3.5942266346521146E-4   -3.613860122718769E-4
0.010328657314629258      0.0025                   -4.8390045530729946E-4-1.0324162880762111E-4i     -4.633656257538596E-4-2.472440267431404E-5i       -3.51546883295451E-4     -3.5696395269981516E-4
0.010376753507014029      0.0025                   -4.75843018728858E-4-1.025885399740238E-4i        -4.577836052909257E-4-2.3806192404292818E-5i      -3.4367110312568576E-4   -3.5244590183960593E-4
0.010424849699398797      0.0025                   -4.6596158140208206E-4-1.0148157834054272E-4i     -4.551172597692656E-4-2.3597076579746028E-5i      -3.342338799749284E-4    -3.504358018468749E-4
0.010472945891783568      0.0025                   -4.597266467169176E-4-1.0088509719427338E-4i      -4.4789421261819443E-4-2.2770069373414877E-5i     -3.281953912702908E-4    -3.441622369984587E-4
0.010521042084168337      0.0025                   -4.5349171203175505E-4-1.00288616048004E-4i       -4.4057264345912883E-4-2.194536937658831E-5i      -3.2215690256565815E-4   -3.377893146109281E-4
0.010569138276553106      0.0025                   -4.4594009948834457E-4-9.924437332567892E-5i      -4.317366799802481E-4-2.041868289069742E-5i       -3.1507461189171225E-4   -3.303351590366342E-4
0.010617234468937876      0.0025                   -4.409405034114563E-4-9.858615034078914E-5i       -4.281542290434696E-4-1.968190452568662E-5i       -3.1034161723344817E-4   -3.27716893937341E-4
0.010665330661322647      0.0025                   -4.359409073345611E-4-9.792792735590031E-5i       -4.24494916468135E-4-1.894775694430338E-5i        -3.0560862257517465E-4   -3.250210158146091E-4
0.010713426853707415      0.0025                   -4.3094131125767085E-4-9.726970437101047E-5i      -4.2075977742782864E-4-1.8216204715119303E-5i     -3.0087562791691154E-4   -3.22248569961683E-4
0.010761523046092184      0.0025                   -4.259417151807808E-4-9.661148138612111E-5i       -4.169498285902355E-4-1.7487213040115433E-5i      -2.961426332586444E-4    -3.194005829850032E-4
0.010809619238476955      0.0025                   -4.2094211910388826E-4-9.595325840123215E-5i      -4.130660685288458E-4-1.676074774059337E-5i       -2.9140963860037436E-4   -3.1647806321992016E-4
0.010857715430861723      0.0025                   -4.1594252302699653E-4-9.529503541634214E-5i      -4.091094781237118E-4-1.603677524345646E-5i       -2.866766439421117E-4    -3.1348200113538846E-4
0.010905811623246494      0.0025                   -4.1094292695010464E-4-9.463681243145302E-5i      -4.050810209515982E-4-1.5315262567857584E-5i      -2.8194364928384305E-4   -3.104133697279154E-4
0.010953907815631263      0.0025                   -4.059433308732156E-4-9.397858944656343E-5i       -4.0098164366585414E-4-1.4596177312195912E-5i     -2.772106546255744E-4    -3.072731249051569E-4
0.011002004008016032      0.0025                   -4.0094373479632205E-4-9.332036646167387E-5i      -3.9681227636633115E-4-1.3879487641455977E-5i     -2.7247765996730794E-4   -3.0406220585944344E-4
0.011050100200400802      0.0025                   -3.9594413871943206E-4-9.266214347678474E-5i      -3.9257383295963146E-4-1.3165162274876649E-5i     -2.677446653090395E-4    -3.007815354315573E-4
0.011098196392785573      0.0025                   -3.9094454264254055E-4-9.200392049189506E-5i      -3.882672115099842E-4-1.2453170473942645E-5i      -2.63011670650775E-4     -2.9743202046503465E-4
0.011146292585170341      0.0025                   -3.859449465656471E-4-9.13456975070062E-5i        -3.838932945810533E-4-1.174348203068458E-5i       -2.5827867599250614E-4   -2.9401455215131306E-4
0.01119438877755511       0.0025                   -3.809453504887584E-4-9.068747452211647E-5i       -3.79452949568922E-4-1.103606725628107E-5i        -2.535456813342403E-4    -2.9053000636597686E-4
0.011242484969939879      0.0025                   -3.7594575441186493E-4-9.002925153722685E-5i      -3.7494702902652553E-4-1.0330896969955875E-5i     -2.488126866759732E-4    -2.8697924399635896E-4
0.01129058116232465       0.0025                   -3.709461583349728E-4-8.937102855233756E-5i       -3.70376370979812E-4-9.627942488155385E-6i        -2.4407969201770434E-4   -2.8336311126079156E-4
0.01133867735470942       0.0025                   -3.659465622580806E-4-8.871280556744837E-5i       -3.65741799235836E-4-8.927175614002965E-6i        -2.3934669735943808E-4   -2.796824400197108E-4
0.011386773547094189      0.0025                   -3.609469661811906E-4-8.805458258255854E-5i       -3.6104412368305277E-4-8.228568627021327E-6i      -2.3461370270117052E-4   -2.7593804807888683E-4
0.011434869739478958      0.0025                   -3.531706756046446E-4-8.696607150314936E-5i       -3.6084296216185214E-4-8.229517472362342E-6i      -2.2737795302408647E-4   -2.7624661921675666E-4
0.011482965931863728      0.0025                   -3.4925635842982254E-4-8.63701043241063E-5i       -3.556425519954536E-4-7.594793321261794E-6i       -2.2373548164799717E-4   -2.718960423261195E-4
0.011531062124248499      0.0025                   -3.430328871898763E-4-8.536882720581036E-5i       -3.4673631731318E-4-6.301634570357848E-6i         -2.1805112611343797E-4   -2.6427530107956434E-4
0.011579158316633267      0.0025                   -3.3974000574256966E-4-8.473291342362617E-5i      -3.4379305599094214E-4-5.75697841122757E-6i       -2.1508949185395135E-4   -2.621845414170299E-4
0.011627254509018036      0.0025                   -3.364471242952626E-4-8.409699964144165E-5i       -3.4079875439664824E-4-5.214941370876502E-6i      -2.1212785759446256E-4   -2.600417681859894E-4
0.011675350701402805      0.0025                   -3.331542428479545E-4-8.346108585925783E-5i       -3.3775404330605775E-4-4.67549108120522E-6i       -2.091662233349753E-4    -2.5784762419058194E-4
0.011723446893787575      0.0025                   -3.298613614006466E-4-8.282517207707372E-5i       -3.3465954314373795E-4-4.138595705282791E-6i      -2.0620458907548602E-4   -2.5560274168636766E-4
0.011771543086172346      0.0025                   -3.265684799533371E-4-8.21892582948902E-5i        -3.3151586419453397E-4-3.6042239264941496E-6i     -2.032429548159961E-4    -2.5330774259582596E-4
0.011819639278557115      0.0025                   -3.2327559850602885E-4-8.155334451270609E-5i      -3.283236068098611E-4-3.072344937957558E-6i       -2.0028132055650686E-4   -2.509632387185879E-4
0.011867735470941883      0.0025                   -3.1998271705872177E-4-8.09174307305219E-5i       -3.250833616089949E-4-2.5429284321928512E-6i      -1.9731968629701894E-4   -2.4856983193655423E-4
0.011915831663326654      0.0025                   -3.1668983561141415E-4-8.028151694833792E-5i      -3.2179570967548325E-4-2.01594459104291E-6i       -1.9435805203752918E-4   -2.4612811441406706E-4
0.011963927855711423      0.0025                   -3.133969541641059E-4-7.964560316615405E-5i       -3.1846122274881573E-4-1.4913640758391209E-6i     -1.9139641777804082E-4   -2.4363866879321884E-4
0.012012024048096193      0.0025                   -3.10104072716799E-4-7.900968938396989E-5i        -3.150804634114916E-4-9.691580178011996E-7i       -1.8843478351855268E-4   -2.4110206838450063E-4
0.012060120240480962      0.0025                   -3.0681119126949193E-4-7.837377560178572E-5i      -3.116539852716147E-4-4.4929800866815955E-7i      -1.854731492590654E-4    -2.385188773528734E-4
0.012108216432865731      0.0025                   -3.0351830982218247E-4-7.773786181960188E-5i      -3.081823331411306E-4+6.824390844854637E-8i       -1.8251151499957402E-4   -2.358896508994027E-4
0.012156312625250501      0.0025                   -3.0022542837487517E-4-7.71019480374176E-5i       -3.0466604320984124E-4+5.834952479942776E-7i      -1.7954988074008653E-4   -2.3321493543859245E-4
0.012204408817635272      0.0025                   -2.9693254692756636E-4-7.646603425523393E-5i      -3.0110564321529046E-4+1.0964830906892348E-6i     -1.7658824648059688E-4   -2.304952687715141E-4
0.01225250501002004       0.0025                   -2.936396654802586E-4-7.583012047304976E-5i       -2.9750165260867027E-4+1.6072340920414462E-6i     -1.7362661222110852E-4   -2.2773118025486936E-4
0.01230060120240481       0.0025                   -2.9034678403295003E-4-7.519420669086603E-5i      -2.938545827167999E-4+2.1157744906577394E-6i      -1.7066497796162016E-4   -2.249231909660638E-4
0.01234869739478958       0.0025                   -2.8705390258564273E-4-7.455829290868186E-5i      -2.901649369003706E-4+2.622130116366591E-6i       -1.677033437021331E-4    -2.2207181386446918E-4
0.012396793587174349      0.0025                   -2.8376102113833587E-4-7.39223791264978E-5i       -2.864332107084546E-4+3.1263263981443627E-6i      -1.6474170944264215E-4   -2.1917755394887126E-4
0.01244488977955912       0.0025                   -2.782889541334901E-4-7.295255654826238E-5i       -2.865253099905809E-4+3.0473167334339545E-6i      -1.59855660430696E-4     -2.1966709131679925E-4
0.012492985971943888      0.0025                   -2.756393126649259E-4-7.238107295407613E-5i       -2.827439598038655E-4+3.5164395009762873E-6i      -1.575330758832301E-4    -2.166371728153968E-4
0.012541082164328657      0.0025                   -2.710609340334161E-4-7.146557955092607E-5i       -2.7618780326557906E-4+4.4914879226769065E-6i     -1.5355281714212387E-4   -2.1123408432475213E-4
0.012589178356713427      0.0025                   -2.6875284753923457E-4-7.087360310307402E-5i      -2.738010538955891E-4+4.869923826609853E-6i       -1.516196646369251E-4    -2.0958581473039942E-4
0.012637274549098198      0.0025                   -2.664447610450529E-4-7.028162665522126E-5i       -2.713802486920702E-4+5.245883109977833E-6i       -1.496865121317256E-4    -2.0790237781689218E-4
0.012685370741482967      0.0025                   -2.6413667455087137E-4-6.968965020736878E-5i      -2.6892577501995006E-4+5.619393942872587E-6i      -1.4775335962653085E-4   -2.0618417359164907E-4
0.012733466933867735      0.0025                   -2.618285880566909E-4-6.909767375951674E-5i       -2.6643801439162214E-4+5.99048406977568E-6i       -1.4582020712133214E-4   -2.044315960185465E-4
0.012781563126252504      0.0025                   -2.595205015625091E-4-6.850569731166405E-5i       -2.6391734257705463E-4+6.3591808175652575E-6i     -1.4388705461613346E-4   -2.0264503313161236E-4
0.012829659318637275      0.0025                   -2.5721241506832746E-4-6.791372086381222E-5i      -2.6136412971142285E-4+6.725511103344998E-6i      -1.419539021109355E-4    -2.008248671461871E-4
0.012877755511022045      0.0025                   -2.5490432857414643E-4-6.732174441595961E-5i      -2.587787404003417E-4+7.0895014420954805E-6i      -1.4002074960573884E-4   -1.9897147456757314E-4
0.012925851703406814      0.0025                   -2.5259624207996437E-4-6.67297679681071E-5i       -2.561615338227371E-4+7.451177954155359E-6i       -1.380875971005403E-4    -1.9708522629727725E-4
0.012973947895791583      0.0025                   -2.502881555857833E-4-6.613779152025463E-5i       -2.5351286383143673E-4+7.810566372537535E-6i      -1.3615444459534327E-4   -1.9516648773687778E-4
0.013022044088176353      0.0025                   -2.479800690916024E-4-6.554581507240239E-5i       -2.508330790515184E-4+8.167692050079703E-6i       -1.3422129209014668E-4   -1.9321561888958316E-4
0.013070140280561124      0.0025                   -2.456719825974208E-4-6.495383862455004E-5i       -2.4812252297651234E-4+8.522579966442246E-6i      -1.3228813958494727E-4   -1.9123297445957773E-4