% Model:              FEA.mph
% Version:            COMSOL 6.0.0.318
% Date:               Jul 31 2022, 07:55
% Dimension:          2
% Nodes:              10000
% Expressions:        1
% Description:        Current density, phi component
% Length unit:        m
% r                       z                        mf.Jphi (A/m^2) @ freq=20000, Switch 1=Titanium beta-21S
0                         -0.006                   2.854424769103181-12.83471788505773i
3.0303030303030303E-4     -0.006                   -4076.0227591682333-1498.7700317043905i
6.060606060606061E-4      -0.006                   -8114.764472306848-2961.963083178449i
9.090909090909091E-4      -0.006                   -12113.370714646737-4402.413872307238i
0.0012121212121212121     -0.006                   -16060.664316615384-5805.7745597803i
0.0015151515151515152     -0.006                   -19906.66012339123-7139.261854823624i
0.0018181818181818182     -0.006                   -23646.200331294254-8401.792703881367i
0.002121212121212121      -0.006                   -27275.669342630285-9589.056174208426i
0.0024242424242424242     -0.006                   -30753.710451202915-10674.124373848324i
0.0027272727272727275     -0.006                   -34068.79752183219-11652.846948097025i
0.0030303030303030303     -0.006                   -37220.70553522348-12524.40082299678i
0.003333333333333333      -0.006                   -40185.58565476114-13270.706142355059i
0.0036363636363636364     -0.006                   -42947.42322315817-13889.765355357458i
0.00393939393939394       -0.006                   -45506.218240414586-14381.57846200399i
0.004242424242424242      -0.006                   -47854.36125977146-14738.636547005357i
0.004545454545454545      -0.006                   -49979.64617002035-14963.994775899084i
0.0048484848484848485     -0.006                   -51881.984977709086-15059.24409740425i
0.005151515151515152      -0.006                   -53560.21724410612-15021.715101436046i
0.005454545454545455      -0.006                   -55014.45146107297-14861.95919701855i
0.005757575757575757      -0.006                   -56245.88423129491-14586.16293057789i
0.006060606060606061      -0.006                   -57254.44474413764-14193.198143039155i
0.006363636363636364      -0.006                   -58050.31537336571-13695.707486240344i
0.006666666666666666      -0.006                   -58640.70923196137-13108.88834918957i
0.0069696969696969695     -0.006                   -59025.626319924646-12432.740731886845i
0.007272727272727273      -0.006                   -59216.207685425456-11674.833396554342i
0.007575757575757576      -0.006                   -59230.926548900905-10860.02009359831i
0.00787878787878788       -0.006                   -59070.038509497674-9989.122035704215i
0.008181818181818182      -0.006                   -58740.18312203117-9065.428009728805i
0.008484848484848484      -0.006                   -58268.60467326812-8114.6282588625i
0.008787878787878787      -0.006                   -57658.24116125774-7141.226884903105i
0.00909090909090909       -0.006                   -56911.10834996987-6145.646058834825i
0.009393939393939394      -0.006                   -56054.95298213271-5147.171100047753i
0.009696969696969697      -0.006                   -55098.56494710213-4154.898248543724i
0.01                      -0.006                   -54041.944244878185-3168.827504322746i
0.010303030303030303      -0.006                   -52904.75489222528-2197.854427918751i
0.010606060606060607      -0.006                   -51703.56730300156-1254.4603106003572i
0.01090909090909091       -0.006                   -50438.38147720704-338.6451523675813i
0.011212121212121211      -0.006                   -49118.155671593966+547.1332231762353i
0.011515151515151515      -0.006                   -47764.41119950465+1392.9626475572156i
0.011818181818181818      -0.006                   -46378.01004049253+2197.89941978862i
0.012121212121212121      -0.006                   -44961.70542382961+2961.7941991630037i
0.012424242424242424      -0.006                   -43534.54462222041+3680.3010235364504i
0.012727272727272728      -0.006                   -42099.970930929085+4351.81335034576i
0.013030303030303031      -0.006                   -40658.2446767315+4976.403001221573i
0.013333333333333332      -0.006                   -39221.89279113854+5554.372203131633i
0.013636363636363636      -0.006                   -37797.11768368951+6084.851732791414i
0.013939393939393939      -0.006                   -36383.91935438436+6567.841590200919i
0.014242424242424242      -0.006                   -34987.64041234438+7004.986838501648i
0.014545454545454545      -0.006                   -33616.205263905955+7398.052897567236i
0.014848484848484849      -0.006                   -32269.603963808466+7746.961747971168i
0.015151515151515152      -0.006                   -30949.420909881854+8052.768074715175i
0.015454545454545455      -0.006                   -29661.956922669888+8319.642310103902i
0.01575757575757576       -0.006                   -28407.727877857265+8547.91991323716i
0.01606060606060606       -0.006                   -27186.979976782142+8737.87115308078i
0.016363636363636365      -0.006                   -26003.175350665202+8894.221997823364i
0.016666666666666666      -0.006                   -24857.14487895814+9018.501479129016i
0.016969696969696968      -0.006                   -23748.888561660937+9110.709596997753i
0.017272727272727273      -0.006                   -22679.541187319282+9174.103807787917i
0.017575757575757574      -0.006                   -21649.649562571693+9212.04777861553i
0.01787878787878788       -0.006                   -20659.1694686213+9224.509000615697i
0.01818181818181818       -0.006                   -19708.215933385192+9212.934339940282i
0.018484848484848486      -0.006                   -18796.413773848035+9181.697508648835i
0.018787878787878787      -0.006                   -17923.602094637754+9131.047929500988i
0.019090909090909092      -0.006                   -17089.748168336024+9061.37468943464i
0.019393939393939394      -0.006                   -16293.646751485721+8976.588876549113i
0.019696969696969695      -0.006                   -15534.748727424736+8877.60924736945i
0.02                      -0.006                   -14813.054096153022+8764.435801895645i
0.020303030303030302      -0.006                   -14127.29728576796+8639.608603916397i
0.020606060606060607      -0.006                   -13476.127357044365+8504.80093431484i
0.02090909090909091       -0.006                   -12859.544309982271+8360.012793090982i
0.021212121212121213      -0.006                   -12276.774525671211+8206.26943092041i
0.021515151515151515      -0.006                   -11725.66448606299+8045.679577546796i
0.02181818181818182       -0.006                   -11206.087697531464+7878.27935522448i
0.02212121212121212       -0.006                   -10717.75253766673+7704.355284058838i
0.022424242424242423      -0.006                   -10258.256266832701+7525.562192721278i
0.022727272727272728      -0.006                   -9827.069063602341+7342.118116176056i
0.02303030303030303       -0.006                   -9424.163999173394+7154.051565741907i
0.023333333333333334      -0.006                   -9047.547182360235+6962.26120294295i
0.023636363636363636      -0.006                   -8696.005868118418+6767.039074889254i
0.02393939393939394       -0.006                   -8369.540056447944+6568.385181580816i
0.024242424242424242      -0.006                   -8067.044037616477+6366.557141967301i
0.024545454545454544      -0.006                   -7786.494160915751+6161.692313483332i
0.02484848484848485       -0.006                   -7527.849861222455+5953.763021574476i
0.02515151515151515       -0.006                   -7290.675951158921+5742.78920634844i
0.025454545454545455      -0.006                   -7072.640166343122+5528.485289361597i
0.025757575757575757      -0.006                   -6873.400272692057+5310.736137691705i
0.026060606060606062      -0.006                   -6692.881958904379+5089.538417222204i
0.026363636363636363      -0.006                   -6529.009696602516+4864.275172974391i
0.026666666666666665      -0.006                   -6380.845668009606+4634.555106328497i
0.02696969696969697       -0.006                   -6248.389873125645+4400.378217284516i
0.02727272727272727       -0.006                   -6130.333659099315+4161.152585676845i
0.027575757575757576      -0.006                   -6024.8361323792915+3915.9815614818435i
0.027878787878787878      -0.006                   -5931.884586178459+3664.8560293288015i
0.028181818181818183      -0.006                   -5850.878901397972+3407.4091787526754i
0.028484848484848484      -0.006                   -5779.365492601949+3142.3137989787638i
0.02878787878787879       -0.006                   -5717.081032905752+2869.4520600846645i
0.02909090909090909       -0.006                   -5663.83901792285+2588.632907451477i
0.029393939393939392      -0.006                   -5617.077592713208+2298.5254227574856i
0.029696969696969697      -0.006                   -5575.986374411609+1998.9959192051388i
0.03                      -0.006                   -2.538717419405411E-9-8.322816742004975E-9i
0                         -0.00593939393939394     5.066344163200279-1.886225444064052i
3.0303030303030303E-4     -0.00593939393939394     -4136.880134025638-1523.1794359451546i
6.060606060606061E-4      -0.00593939393939394     -8240.9199906889-3028.4713426991784i
9.090909090909091E-4      -0.00593939393939394     -12304.824376553437-4511.020987107929i
0.0012121212121212121     -0.00593939393939394     -16308.088508617406-5930.752327745642i
0.0015151515151515152     -0.00593939393939394     -20214.771969814763-7303.445064436773i
0.0018181818181818182     -0.00593939393939394     -24014.999832139296-8605.181355142317i
0.002121212121212121      -0.00593939393939394     -27694.733854343413-9803.931305583206i
0.0024242424242424242     -0.00593939393939394     -31223.558515197994-10918.404555801932i
0.0027272727272727275     -0.00593939393939394     -34589.42913810923-11926.532180629461i
0.0030303030303030303     -0.00593939393939394     -37786.80742240685-12811.04725293403i
0.003333333333333333      -0.00593939393939394     -40789.14916054635-13573.42906651532i
0.0036363636363636364     -0.00593939393939394     -43588.87548315431-14210.234769716597i
0.00393939393939394       -0.00593939393939394     -46185.559254621665-14719.794366562002i
0.004242424242424242      -0.00593939393939394     -48556.94344549218-15073.582876764256i
0.004545454545454545      -0.00593939393939394     -50705.55168586513-15303.994015755987i
0.0048484848484848485     -0.00593939393939394     -52631.21382367785-15404.296247359136i
0.005151515151515152      -0.00593939393939394     -54324.19404046064-15361.291859292745i
0.005454545454545455      -0.00593939393939394     -55787.169314502265-15194.85984127431i
0.005757575757575757      -0.00593939393939394     -57027.34314179898-14912.387461232718i
0.006060606060606061      -0.00593939393939394     -58042.56465482879-14511.907104493352i
0.006363636363636364      -0.00593939393939394     -58834.10989423406-13998.58914932674i
0.006666666666666666      -0.00593939393939394     -59420.17836300692-13395.942713908174i
0.0069696969696969695     -0.00593939393939394     -59800.972738672-12704.558220539204i
0.007272727272727273      -0.00593939393939394     -59979.66975372899-11930.651839251315i
0.007575757575757576      -0.00593939393939394     -59979.68544380458-11094.381406799224i
0.00787878787878788       -0.00593939393939394     -59804.09423100146-10202.026219409056i
0.008181818181818182      -0.00593939393939394     -59457.980122707224-9263.773192663217i
0.008484848484848484      -0.00593939393939394     -58964.48935056236-8289.452299546227i
0.008787878787878787      -0.00593939393939394     -58332.21351517024-7292.529783336192i
0.00909090909090909       -0.00593939393939394     -57564.94105019812-6282.947217810502i
0.009393939393939394      -0.00593939393939394     -56682.75929805015-5261.8201451281i
0.009696969696969697      -0.00593939393939394     -55700.34487870875-4246.895179728754i
0.01                      -0.00593939393939394     -54619.20436712694-3242.8629258319265i
0.010303030303030303      -0.00593939393939394     -53455.88843809555-2256.67751696735i
0.010606060606060607      -0.00593939393939394     -52227.211581852425-1293.4701720899036i
0.01090909090909091       -0.00593939393939394     -50934.53648903847-357.841786298084i
0.011212121212121211      -0.00593939393939394     -49589.73100057954+536.4122555884074i
0.011515151515151515      -0.00593939393939394     -48209.06315029843+1398.2193704398626i
0.011818181818181818      -0.00593939393939394     -46795.73861309448+2219.133833141748i
0.012121212121212121      -0.00593939393939394     -45355.355680699+2989.692766000166i
0.012424242424242424      -0.00593939393939394     -43903.21680672837+3720.126372559183i
0.012727272727272728      -0.00593939393939394     -42443.665043075576+4403.5654815540765i
0.013030303030303031      -0.00593939393939394     -40978.720027466516+5033.808057029918i
0.013333333333333332      -0.00593939393939394     -39520.27983369524+5619.204884031918i
0.013636363636363636      -0.00593939393939394     -38073.276477228814+6157.866002139731i
0.013939393939393939      -0.00593939393939394     -36637.849898906294+6649.037447997273i
0.014242424242424242      -0.00593939393939394     -35223.06566923722+7086.167612501309i
0.014545454545454545      -0.00593939393939394     -33832.504027244686+7484.255523257572i
0.014848484848484849      -0.00593939393939394     -32466.77623359313+7838.186225352182i
0.015151515151515152      -0.00593939393939394     -31129.973433496656+8142.977468126901i
0.015454545454545455      -0.00593939393939394     -29826.514074857132+8412.397425327075i
0.01575757575757576       -0.00593939393939394     -28556.28965861699+8643.220750271781i
0.01606060606060606       -0.00593939393939394     -27320.85960025448+8831.299383591995i
0.016363636363636365      -0.00593939393939394     -26124.0123088449+8988.384780179711i
0.016666666666666666      -0.00593939393939394     -24964.939171845184+9113.398813330497i
0.016969696969696968      -0.00593939393939394     -23843.722131422808+9205.92894431502i
0.017272727272727273      -0.00593939393939394     -22764.21621516426+9265.933652961337i
0.017575757575757574      -0.00593939393939394     -21723.93918100853+9303.384250015297i
0.01787878787878788       -0.00593939393939394     -20723.07367765006+9315.352098241807i
0.01818181818181818       -0.00593939393939394     -19763.602956924995+9299.923673455047i
0.018484848484848486      -0.00593939393939394     -18843.72657385531+9267.441044772457i
0.018787878787878787      -0.00593939393939394     -17962.840671112514+9215.545668233472i
0.019090909090909092      -0.00593939393939394     -17121.928818042867+9142.039117197288i
0.019393939393939394      -0.00593939393939394     -16319.712681231866+9055.619832235929i
0.019696969696969695      -0.00593939393939394     -15554.6999372102+8955.006730980434i
0.02                      -0.00593939393939394     -14827.151231177322+8839.166857894903i
0.020303030303030302      -0.00593939393939394     -14137.05200497569+8711.511791003828i
0.020606060606060607      -0.00593939393939394     -13481.397657384403+8574.945930318581i
0.02090909090909091       -0.00593939393939394     -12860.330191454603+8428.399598011023i
0.021212121212121213      -0.00593939393939394     -12274.40797128686+8271.142926651068i
0.021515151515151515      -0.00593939393939394     -11720.152776013541+8108.84503830324i
0.02181818181818182       -0.00593939393939394     -11197.430831816948+7939.736781006725i
0.02212121212121212       -0.00593939393939394     -10706.784882442245+7762.641220197483i
0.022424242424242423      -0.00593939393939394     -10245.236672477935+7582.291012453167i
0.022727272727272728      -0.00593939393939394     -9811.997530117269+7397.289819501173i
0.02303030303030303       -0.00593939393939394     -9407.487338028584+7206.543294231779i
0.023333333333333334      -0.00593939393939394     -9029.759734652895+7013.230297427666i
0.023636363636363636      -0.00593939393939394     -8677.058977195575+6816.64045985546i
0.02393939393939394       -0.00593939393939394     -8349.433722309606+6616.618857028517i
0.024242424242424242      -0.00593939393939394     -8046.785398595301+6412.455681411732i
0.024545454545454544      -0.00593939393939394     -7765.809232417717+6206.396194443883i
0.02484848484848485       -0.00593939393939394     -7506.738643247567+5997.272244051151i
0.02515151515151515       -0.00593939393939394     -7269.874529029188+5784.214046518779i
0.025454545454545455      -0.00593939393939394     -7052.030047863375+5568.8060897586i
0.025757575757575757      -0.00593939393939394     -6852.9814578623045+5349.952898315372i
0.026060606060606062      -0.00593939393939394     -6673.19639468736+5126.8437901839625i
0.026363636363636363      -0.00593939393939394     -6510.024536028802+4900.441544804942i
0.026666666666666665      -0.00593939393939394     -6362.560911079186+4669.582477027831i
0.02696969696969697       -0.00593939393939394     -6230.869581518138+4434.17803422038i
0.02727272727272727       -0.00593939393939394     -6114.306717007766+4192.9573760437925i
0.027575757575757576      -0.00593939393939394     -6009.9388213704815+3946.3764079200505i
0.027878787878787878      -0.00593939393939394     -5918.116906252379+3693.840931838249i
0.028181818181818183      -0.00593939393939394     -5838.952790420192+3433.971933229658i
0.028484848484848484      -0.00593939393939394     -5768.925741313261+3166.788407719902i
0.02878787878787879       -0.00593939393939394     -5708.1276413061505+2891.838523089942i
0.02909090909090909       -0.00593939393939394     -5656.95112141023+2607.8301017529184i
0.029393939393939392      -0.00593939393939394     -5612.04090836969+2314.026040858722i
0.029696969696969697      -0.00593939393939394     -5572.800902237192+2010.7999611061718i
0.03                      -0.00593939393939394     -2.5463124912967357E-9-8.322072497927193E-9i
0                         -0.005878787878787879    7.036252158634021+7.649024359520473i
3.0303030303030303E-4     -0.005878787878787879    -4199.087606758563-1554.0989178849816i
6.060606060606061E-4      -0.005878787878787879    -8368.425606946468-3101.489679918967i
9.090909090909091E-4      -0.005878787878787879    -12497.628136335656-4626.138179607683i
0.0012121212121212121     -0.005878787878787879    -16558.505414003415-6070.26621401121i
0.0015151515151515152     -0.005878787878787879    -20525.876529622277-7482.164392350141i
0.0018181818181818182     -0.005878787878787879    -24386.792046368322-8823.106124703496i
0.002121212121212121      -0.005878787878787879    -28118.55122077382-10041.383049389513i
0.0024242424242424242     -0.005878787878787879    -31698.159433910365-11185.261350187064i
0.0027272727272727275     -0.005878787878787879    -35114.81360910357-12222.794025593419i
0.0030303030303030303     -0.005878787878787879    -38359.76088545717-13130.741499424836i
0.003333333333333333      -0.005878787878787879    -41398.70775709174-13904.797033139528i
0.0036363636363636364     -0.005878787878787879    -44236.32283391062-14559.349226539669i
0.00393939393939394       -0.005878787878787879    -46870.33458745698-15084.697480475847i
0.004242424242424242      -0.005878787878787879    -49266.33838333087-15441.186867981884i
0.004545454545454545      -0.005878787878787879    -51438.26995382781-15676.650917071607i
0.0048484848484848485     -0.005878787878787879    -53387.25542176456-15782.006058772751i
0.005151515151515152      -0.005878787878787879    -55095.32319887046-15735.396217673904i
0.005454545454545455      -0.005878787878787879    -56567.03952998682-15562.288086054525i
0.005757575757575757      -0.005878787878787879    -57815.95441435831-15273.139592411999i
0.006060606060606061      -0.005878787878787879    -58837.565399110725-14864.7256047211i
0.006363636363636364      -0.005878787878787879    -59624.958518493026-14335.885337180256i
0.006666666666666666      -0.005878787878787879    -60206.7015974431-13717.411603393897i
0.0069696969696969695     -0.005878787878787879    -60583.4311054885-13011.815524861662i
0.007272727272727273      -0.005878787878787879    -60749.79127878847-12219.201009026348i
0.007575757575757576      -0.005878787878787879    -60735.10379546415-11361.473447078166i
0.00787878787878788       -0.005878787878787879    -60544.80940926113-10447.66113019195i
0.008181818181818182      -0.005878787878787879    -60181.891999634456-9492.193068324848i
0.008484848484848484      -0.005878787878787879    -59666.488904107864-8494.351032957231i
0.008787878787878787      -0.005878787878787879    -59012.300745333974-7473.907374496524i
0.00909090909090909       -0.005878787878787879    -58224.31594832497-6447.210457397983i
0.009393939393939394      -0.005878787878787879    -57316.10781186617-5403.431270820262i
0.009696969696969697      -0.005878787878787879    -56307.66700821395-4365.8541915256055i
0.01                      -0.005878787878787879    -55201.64186031304-3342.4296927230444i
0.010303030303030303      -0.005878787878787879    -54012.04224666055-2339.2656149899i
0.010606060606060607      -0.005878787878787879    -52755.87612339805-1356.24504255343i
0.01090909090909091       -0.005878787878787879    -51435.711763564694-400.80342920257004i
0.011212121212121211      -0.005878787878787879    -50065.892942177255+504.9739136982384i
0.011515151515151515      -0.005878787878787879    -48658.30171370429+1382.7587190201857i
0.011818181818181818      -0.005878787878787879    -47218.05379830853+2219.650872192546i
0.012121212121212121      -0.005878787878787879    -45753.25236247423+2999.6525150377233i
0.012424242424242424      -0.005878787878787879    -44276.13541614211+3742.0129037823194i
0.012727272727272728      -0.005878787878787879    -42791.60558012795+4437.378794962768i
0.013030303030303031      -0.005878787878787879    -41302.88968290748+5077.420437392551i
0.013333333333333332      -0.005878787878787879    -39822.65195941834+5668.5660898659i
0.013636363636363636      -0.005878787878787879    -38353.420353934525+6215.408796421754i
0.013939393939393939      -0.005878787878787879    -36896.06462698309+6713.641800372408i
0.014242424242424242      -0.005878787878787879    -35462.270904273486+7154.035061238763i
0.014545454545454545      -0.005878787878787879    -34052.582768726854+7557.144823685709i
0.014848484848484849      -0.005878787878787879    -32667.72848152117+7916.097377471002i
0.015151515151515152      -0.005878787878787879    -31314.13451059984+8221.745335526362i
0.015454545454545455      -0.005878787878787879    -29994.67978053276+8493.711014537981i
0.01575757575757576       -0.005878787878787879    -28708.459992865028+8727.080061294138i
0.01606060606060606       -0.005878787878787879    -27458.1040414727+8915.670409606086i
0.016363636363636365      -0.005878787878787879    -26248.30173538217+9072.721305533412i
0.016666666666666666      -0.005878787878787879    -25076.185933089822+9198.469890529326i
0.016969696969696968      -0.005878787878787879    -23942.326078816805+9290.417263261674i
0.017272727272727273      -0.005878787878787879    -22852.190087265197+9349.325981916865i
0.017575757575757574      -0.005878787878787879    -21801.527643701364+9386.283205197167i
0.01787878787878788       -0.005878787878787879    -20790.276730934722+9397.757679650023i
0.01818181818181818       -0.005878787878787879    -19822.129842094408+9379.665513245613i
0.018484848484848486      -0.005878787878787879    -18894.179235492204+9345.937087171884i
0.018787878787878787      -0.005878787878787879    -18005.2191092169+9292.795913241758i
0.019090909090909092      -0.005878787878787879    -17157.08114853525+9216.472143346296i
0.019393939393939394      -0.005878787878787879    -16348.75029176357+9128.419386309106i
0.019696969696969695      -0.005878787878787879    -15577.622827781186+9026.172812977775i
0.02                      -0.005878787878787879    -14844.239242912336+8908.102275590307i
0.020303030303030302      -0.005878787878787879    -14149.599890411158+8778.047538896442i
0.020606060606060607      -0.005878787878787879    -13489.461123952153+8639.723487127489i
0.02090909090909091       -0.005878787878787879    -12863.909239154647+8491.418963736234i
0.021212121212121213      -0.005878787878787879    -12274.646149389562+8331.380093384782i
0.021515151515151515      -0.005878787878787879    -11717.245798451155+8167.374170062747i
0.02181818181818182       -0.005878787878787879    -11191.378698589488+7996.557877792026i
0.02212121212121212       -0.005878787878787879    -10698.224673361288+7816.906333761025i
0.022424242424242423      -0.005878787878787879    -10234.624524266674+7634.999009609939i
0.022727272727272728      -0.005878787878787879    -9799.333442775736+7448.440700251194i
0.02303030303030303       -0.005878787878787879    -9392.951871327434+7255.897296381904i
0.023333333333333334      -0.005878787878787879    -9014.174723671573+7060.694150202868i
0.023636363636363636      -0.005878787878787879    -8660.314522998764+6862.736603112156i
0.02393939393939394       -0.005878787878787879    -8331.621182256125+6661.137766732003i
0.024242424242424242      -0.005878787878787879    -8028.51724372407+6455.279081776924i
0.024545454545454544      -0.005878787878787879    -7747.114788069637+6248.024936325201i
0.02484848484848485       -0.005878787878787879    -7487.617909422628+6037.706327448587i
0.02515151515151515       -0.005878787878787879    -7250.842749670017+5822.9230031406i
0.025454545454545455      -0.005878787878787879    -7033.189572154189+5606.411006607081i
0.025757575757575757      -0.005878787878787879    -6834.332285803101+5386.453775390512i
0.026060606060606062      -0.005878787878787879    -6654.968260850362+5161.892967742634i
0.026363636363636363      -0.005878787878787879    -6492.580279819522+4934.195179849926i
0.026666666666666665      -0.005878787878787879    -6345.817058513207+4702.197110941605i
0.02696969696969697       -0.005878787878787879    -6215.019692473533+4465.3800528410975i
0.02727272727272727       -0.005878787878787879    -6099.579260658335+4222.610456353085i
0.027575757575757576      -0.005878787878787879    -5996.340996103783+3974.6195443005904i
0.027878787878787878      -0.005878787878787879    -5905.648712068415+3720.67412429004i
0.028181818181818183      -0.005878787878787879    -5828.0685016780535+3458.6216391228195i
0.028484848484848484      -0.005878787878787879    -5759.52781226021+3189.3499678772077i
0.02878787878787879       -0.005878787878787879    -5700.216071942193+2912.311937511414i
0.02909090909090909       -0.005878787878787879    -5650.853841781513+2625.363468674671i
0.029393939393939392      -0.005878787878787879    -5607.794840910074+2327.8628315802675i
0.029696969696969697      -0.005878787878787879    -5570.406046946678+2020.9401756275074i
0.03                      -0.005878787878787879    -2.5520713785536174E-9-8.322102000899845E-9i
0                         -0.005818181818181819    8.764148755402145+15.771031525694916i
3.0303030303030303E-4     -0.005818181818181819    -4262.645177367008-1591.5284775238702i
6.060606060606061E-4      -0.005818181818181819    -8497.281321079561-3181.01809483782i
9.090909090909091E-4      -0.005818181818181819    -12691.611931616824-4746.787773420147i
0.0012121212121212121     -0.005818181818181819    -16811.915032773402-6224.3162185770025i
0.0015151515151515152     -0.005818181818181819    -20839.973802813787-7675.419838563739i
0.0018181818181818182     -0.005818181818181819    -24761.57697398133-9055.567012564889i
0.002121212121212121      -0.005818181818181819    -28547.121441921565-10301.41140562735i
0.0024242424242424242     -0.005818181818181819    -32177.51320734005-11474.694757003721i
0.0027272727272727275     -0.005818181818181819    -35644.95093481519-12541.632482988898i
0.0030303030303030303     -0.005818181818181819    -38937.32293989914-13475.414178435605i
0.003333333333333333      -0.005818181818181819    -42014.26144439731-14264.810042227678i
0.0036363636363636364     -0.005818181818181819    -44889.76527542713-14937.108725826702i
0.00393939393939394       -0.005818181818181819    -47559.978083985676-15476.418475430104i
0.004242424242424242      -0.005818181818181819    -49982.5460732875-15841.448520658241i
0.004545454545454545      -0.005818181818181819    -52177.80097390844-16081.96547984594i
0.0048484848484848485     -0.005818181818181819    -54150.109771969175-16192.373531645075i
0.005151515151515152      -0.005818181818181819    -55873.60471933552-16144.028176579519i
0.005454545454545455      -0.005818181818181819    -57354.06210752668-15964.243931359215i
0.005757575757575757      -0.005818181818181819    -58611.71804897293-15668.419324115754i
0.006060606060606061      -0.005818181818181819    -59638.83991202694-15251.266168580076i
0.006363636363636364      -0.005818181818181819    -60422.861246142624-14707.596049800919i
0.006666666666666666      -0.005818181818181819    -61000.27893526992-14073.295017646762i
0.0069696969696969695     -0.005818181818181819    -61372.090439778636-13352.367787126734i
0.007272727272727273      -0.005818181818181819    -61526.57226060385-12540.480905879434i
0.007575757575757576      -0.005818181818181819    -61497.18160387967-11661.296214435197i
0.00787878787878788       -0.005818181818181819    -61292.184044276764-10726.0267680529i
0.008181818181818182      -0.005818181818181819    -60911.91875281294-9750.687636713741i
0.008484848484848484      -0.005818181818181819    -60374.60333390459-8729.324459095475i
0.008787878787878787      -0.005818181818181819    -59698.50285174893-7685.359658384117i