% Model:              FEA.mph
% Version:            COMSOL 5.1.0.145
% Date:               Jun 19 2022, 10:47
% Dimension:          2
% Nodes:              10000
% Expressions:        1
% Description:        Current density, phi component
% Length unit:        m
% r                       z                        mf.Jphi (A/m^2) @ freq=500
0                         -0.006                   -0.010904092280330032-0.03572460448209554i
3.0303030303030303E-4     -0.006                   -23.316615824543746-8.787574821754903i
6.060606060606061E-4      -0.006                   -46.447153474499395-17.506751425332872i
9.090909090909091E-4      -0.006                   -69.40251704214714-26.193254415215964i
0.0012121212121212121     -0.006                   -92.12352671726497-34.80125190820387i
0.0015151515151515152     -0.006                   -114.38407331372912-43.28924455684354i
0.0018181818181818182     -0.006                   -136.16365027430976-51.66492948002769i
0.002121212121212121      -0.006                   -157.44361835950411-59.89693678744057i
0.0024242424242424242     -0.006                   -178.0346916966352-67.93168911629185i
0.0027272727272727275     -0.006                   -197.8877007508533-75.80000169449941i
0.0030303030303030303     -0.006                   -217.00092800760035-83.49296835816851i
0.003333333333333333      -0.006                   -235.2603534490872-90.92137803550467i
0.0036363636363636364     -0.006                   -252.59938751430153-98.15069021557765i
0.00393939393939394       -0.006                   -269.018030203243-105.1809048983874i
0.004242424242424242      -0.006                   -284.47564978288204-111.93175253503993i
0.004545454545454545      -0.006                   -298.9204551712017-118.46477079295204i
0.0048484848484848485     -0.006                   -312.3534637590415-124.80017544887508i
0.005151515151515152      -0.006                   -324.7632391585416-130.8880413725763i
0.005454545454545455      -0.006                   -336.15096025534945-136.75286668635263i
0.005757575757575757      -0.006                   -346.5284563992122-142.45274256120308i
0.006060606060606061      -0.006                   -355.8916182289208-147.96644947266836i
0.006363636363636364      -0.006                   -364.27123107084316-153.26296218883516i
0.006666666666666666      -0.006                   -371.7124746432025-158.4489143685247i
0.0069696969696969695     -0.006                   -378.2153489459929-163.5243060117364i
0.007272727272727273      -0.006                   -383.8164853457254-168.42245357735985i
0.007575757575757576      -0.006                   -388.6029779283272-173.26317512738444i
0.00787878787878788       -0.006                   -392.57705418935706-178.05706646011427i
0.008181818181818182      -0.006                   -395.75889794930424-182.75911818132622i
0.008484848484848484      -0.006                   -398.2622777381596-187.43438650398386i
0.008787878787878787      -0.006                   -400.10386179313576-192.12539096129169i
0.00909090909090909       -0.006                   -401.2909071212147-196.80956131903332i
0.009393939393939394      -0.006                   -401.93281847848164-201.49056154331248i
0.009696969696969697      -0.006                   -402.0663629430532-206.23923268951089i
0.01                      -0.006                   -401.6915405149243-211.05557475762848i
0.010303030303030303      -0.006                   -400.8866548324076-215.8849194769349i
0.010606060606060607      -0.006                   -399.7142286850705-220.82004736975023i
0.01090909090909091       -0.006                   -398.17426207290623-225.86095843607416i
0.011212121212121211      -0.006                   -396.30476807543283-230.96815869794386i
0.011515151515151515      -0.006                   -394.18527888782984-236.18525948962946i
0.011818181818181818      -0.006                   -391.81737153528564-241.53290033348586i
0.012121212121212121      -0.006                   -389.21358466746943-246.98866056380166i
0.012424242424242424      -0.006                   -386.44636880101905-252.55178700237806i
0.012727272727272728      -0.006                   -383.5252793293399-258.26039228549274i
0.013030303030303031      -0.006                   -380.45188999479024-264.10912454622536i
0.013333333333333332      -0.006                   -377.2777971928892-270.05964536127146i
0.013636363636363636      -0.006                   -374.020751616043-276.1637841336902i
0.013939393939393939      -0.006                   -370.6807532642533-282.4215408634815i
0.014242424242424242      -0.006                   -367.28204436818703-288.7951424296695i
0.014545454545454545      -0.006                   -363.85230875058085-295.31761976578014i
0.014848484848484849      -0.006                   -360.39058201996295-301.99893849570105i
0.015151515151515152      -0.006                   -356.9051641243344-308.8172656746563i
0.015454545454545455      -0.006                   -353.42227753718913-315.77636598852456i
0.01575757575757576       -0.006                   -349.94236313504194-322.8993272773719i
0.01606060606060606       -0.006                   -346.4669689125063-330.17809016888384i
0.016363636363636365      -0.006                   -343.01453467435476-337.5927246041766i
0.016666666666666666      -0.006                   -339.5880656560687-345.1783001112171i
0.016969696969696968      -0.006                   -336.1875618576507-352.93481669000494i
0.017272727272727273      -0.006                   -332.82184774936957-360.83308927310844i
0.017575757575757574      -0.006                   -329.49662528539534-368.90931300369886i
0.01787878787878788       -0.006                   -326.2116269125919-377.1672702913119i
0.01818181818181818       -0.006                   -322.96920338045044-385.58929569920207i
0.018484848484848486      -0.006                   -319.77510227144194-394.19409076316634i
0.018787878787878787      -0.006                   -316.6293892106472-402.9966357052559i
0.019090909090909092      -0.006                   -313.53220792623796-411.98858433695756i
0.019393939393939394      -0.006                   -310.4861726587665-421.1736517334134i
0.019696969696969695      -0.006                   -307.49225252102923-430.57930489490684i
0.02                      -0.006                   -304.55044751302785-440.2055438214371i
0.020303030303030302      -0.006                   -301.6596992689415-450.03921674203673i
0.020606060606060607      -0.006                   -298.82160658216253-460.12524930299736i
0.02090909090909091       -0.006                   -296.03616945269437-470.46364150431725i
0.021212121212121213      -0.006                   -293.3012706712045-481.04655049947485i
0.021515151515151515      -0.006                   -290.61604513262347-491.9156304160678i
0.02181818181818182       -0.006                   -287.98103404667825-503.0808023271554i
0.02212121212121212       -0.006                   -285.39468047675956-514.5367534064947i
0.022424242424242423      -0.006                   -282.8524503522182-526.3230275597787i
0.022727272727272728      -0.006                   -280.3550695341073-538.4656798772897i
0.02303030303030303       -0.006                   -277.90213159110266-550.9627642974137i
0.023333333333333334      -0.006                   -275.4851514286537-563.844765038304i
0.023636363636363636      -0.006                   -273.10350485633563-577.166876145362i
0.02393939393939394       -0.006                   -270.7571918741489-590.9290976185882i
0.024242424242424242      -0.006                   -268.438134231854-605.1507083554126i
0.024545454545454544      -0.006                   -266.13896556914887-619.9243475031035i
0.02484848484848485       -0.006                   -263.8602137765985-635.257095150674i
0.02515151515151515       -0.006                   -261.5965046613454-651.1596039181425i
0.025454545454545455      -0.006                   -259.33198415489665-667.7644810889551i
0.025757575757575757      -0.006                   -257.06674176060864-685.1052764709078i
0.026060606060606062      -0.006                   -254.79849484563186-703.1815950033756i
0.026363636363636363      -0.006                   -252.5057104972111-722.1645531735958i
0.026666666666666665      -0.006                   -250.18772923728434-742.1705990034764i
0.02696969696969697       -0.006                   -247.84455106585207-763.199732493017i
0.02727272727272727       -0.006                   -245.45435387893136-785.4180318376699i
0.027575757575757576      -0.006                   -243.02612265269514-809.198375902343i
0.027878787878787878      -0.006                   -240.5617340417014-834.5497064977613i
0.028181818181818183      -0.006                   -238.04371832502562-861.5750674315841i
0.028484848484848484      -0.006                   -235.53066630528656-891.32585268983i
0.02878787878787879       -0.006                   -233.04741635367623-924.0048018812034i
0.02909090909090909       -0.006                   -230.52141573347296-959.0746634638513i
0.029393939393939392      -0.006                   -228.73609827681253-1005.4204681942016i
0.029696969696969697      -0.006                   -228.334691833558-1069.4657693893168i
0.03                      -0.006                   -229.31719640371085-1151.2105670491956i
0                         -0.00593939393939394     0.0760616443060472+0.5666363521984943i
3.0303030303030303E-4     -0.00593939393939394     -38.581167600237514-11.342265831921702i
6.060606060606061E-4      -0.00593939393939394     -76.8228586011091-23.243966421240362i
9.090909090909091E-4      -0.00593939393939394     -114.88937551967236-35.112993396864056i
0.0012121212121212121     -0.00593939393939394     -152.1578522977558-45.502661879697925i
0.0015151515151515152     -0.00593939393939394     -188.47011465012713-56.877183342549046i
0.0018181818181818182     -0.00593939393939394     -224.30140736661872-68.1393970799453i
0.002121212121212121      -0.00593939393939394     -258.9719259640211-78.09784993586935i
0.0024242424242424242     -0.00593939393939394     -291.5294718387732-88.31099045177946i
0.0027272727272727275     -0.00593939393939394     -323.348953430614-98.35769121704617i
0.0030303030303030303     -0.00593939393939394     -354.2958984088437-107.46797024790511i
0.003333333333333333      -0.00593939393939394     -381.7978903529755-116.05983379709185i
0.0036363636363636364     -0.00593939393939394     -408.3604880683382-124.52880377605933i
0.00393939393939394       -0.00593939393939394     -434.0026944074292-132.7986762577638i
0.004242424242424242      -0.00593939393939394     -456.2643726086042-139.51369400647903i
0.004545454545454545      -0.00593939393939394     -476.8414353290173-146.28118182591953i
0.0048484848484848485     -0.00593939393939394     -496.40670124896076-152.85105604337258i
0.005151515151515152      -0.00593939393939394     -513.3933955645971-158.4205184235461i
0.005454545454545455      -0.00593939393939394     -527.8263532690485-163.5887235414023i
0.005757575757575757      -0.00593939393939394     -541.2490860205598-168.59197922033317i
0.006060606060606061      -0.00593939393939394     -553.1036534133715-173.13544963973493i
0.006363636363636364      -0.00593939393939394     -561.7785055418493-177.0301451170443i
0.006666666666666666      -0.00593939393939394     -569.5149884007591-180.81428005787578i
0.0069696969696969695     -0.00593939393939394     -576.3132607804281-184.49526958377524i
0.007272727272727273      -0.00593939393939394     -580.2868651116686-187.68454525210436i
0.007575757575757576      -0.00593939393939394     -583.1999301971156-190.71432295517147i
0.00787878787878788       -0.00593939393939394     -585.300578960995-193.69727044094427i
0.008181818181818182      -0.00593939393939394     -585.7454077161113-196.70342332390837i
0.008484848484848484      -0.00593939393939394     -584.87187968636-199.4452830417581i
0.008787878787878787      -0.00593939393939394     -583.3365559227219-202.20287889425748i
0.00909090909090909       -0.00593939393939394     -580.9231738668428-205.2423423432884i
0.009393939393939394      -0.00593939393939394     -577.3124005001984-208.08977213509132i
0.009696969696969697      -0.00593939393939394     -573.1932602408561-211.00487284881328i
0.01                      -0.00593939393939394     -568.5755272467895-214.13942647923872i
0.010303030303030303      -0.00593939393939394     -563.1881166646774-217.50992934045294i
0.010606060606060607      -0.00593939393939394     -557.4030480497522-220.84504441139586i
0.01090909090909091       -0.00593939393939394     -551.2504389699999-224.28594265584735i
0.011212121212121211      -0.00593939393939394     -544.820858596359-228.2923699997794i
0.011515151515151515      -0.00593939393939394     -538.1037475295951-232.19489260555517i
0.011818181818181818      -0.00593939393939394     -531.1382182978897-236.2279552635017i
0.012121212121212121      -0.00593939393939394     -524.0838083938512-240.7700278008869i
0.012424242424242424      -0.00593939393939394     -516.9743267174393-245.29773178045684i
0.012727272727272728      -0.00593939393939394     -509.7109714358022-249.97091460456488i
0.013030303030303031      -0.00593939393939394     -502.37777795901735-255.0472481947267i
0.013333333333333332      -0.00593939393939394     -495.2514928946406-260.2334492529044i
0.013636363636363636      -0.00593939393939394     -488.0380734130621-265.54263176589666i
0.013939393939393939      -0.00593939393939394     -480.74170115654186-271.0054322362613i
0.014242424242424242      -0.00593939393939394     -473.78882495515654-276.98182044740605i
0.014545454545454545      -0.00593939393939394     -466.8407072117261-282.89925794922743i
0.014848484848484849      -0.00593939393939394     -459.8605983552842-288.97553684485877i
0.015151515151515152      -0.00593939393939394     -453.1328287225277-295.4797560588565i
0.015454545454545455      -0.00593939393939394     -446.57151600985253-301.9741623416942i
0.01575757575757576       -0.00593939393939394     -440.0131754821728-308.63242959951094i
0.01606060606060606       -0.00593939393939394     -433.60280415152795-315.6626166538842i
0.016363636363636365      -0.00593939393939394     -427.48597969861123-322.7106631439139i
0.016666666666666666      -0.00593939393939394     -421.3951204655623-329.929650705691i
0.016969696969696968      -0.00593939393939394     -415.33918673681416-337.3402644497846i
0.017272727272727273      -0.00593939393939394     -409.70365467907936-345.08383526567945i
0.017575757575757574      -0.00593939393939394     -404.08965945938286-352.8586827770043i
0.01787878787878788       -0.00593939393939394     -398.5158883308591-360.8152638453512i
0.01818181818181818       -0.00593939393939394     -393.2560983347398-369.1144149775481i
0.018484848484848486      -0.00593939393939394     -388.1078588778081-377.4596230692214i
0.018787878787878787      -0.00593939393939394     -383.0080074690885-386.00258103902024i
0.019090909090909092      -0.00593939393939394     -378.1219583023378-394.8785938712843i
0.019393939393939394      -0.00593939393939394     -373.4186366788248-403.8315173923037i
0.019696969696969695      -0.00593939393939394     -368.76743018504453-413.0050266783609i
0.02                      -0.00593939393939394     -364.219180710026-422.4586506094092i
0.020303030303030302      -0.00593939393939394     -359.96801609447033-432.14348507831727i
0.020606060606060607      -0.00593939393939394     -355.7377271218177-442.02010440758005i
0.02090909090909091       -0.00593939393939394     -351.5600937064769-452.1490833772014i
0.021212121212121213      -0.00593939393939394     -347.69113402889565-462.6511692636371i
0.021515151515151515      -0.00593939393939394     -343.85343921977073-473.3406602022667i
0.02181818181818182       -0.00593939393939394     -340.06595886328233-484.32624313539003i
0.02212121212121212       -0.00593939393939394     -336.5145260808371-495.7226383674912i
0.022424242424242423      -0.00593939393939394     -333.0380729386185-507.38311017008596i
0.022727272727272728      -0.00593939393939394     -329.6064691028257-519.3999601369098i
0.02303030303030303       -0.00593939393939394     -326.33877724889544-531.8633383821381i
0.023333333333333334      -0.00593939393939394     -323.1934203803739-544.732971449872i
0.023636363636363636      -0.00593939393939394     -320.07096253999936-558.0320830881461i
0.02393939393939394       -0.00593939393939394     -316.983838289757-571.7713050925877i
0.024242424242424242      -0.00593939393939394     -314.1729887166007-586.2136499352109i
0.024545454545454544      -0.00593939393939394     -311.2830491108786-601.1549889387388i
0.02484848484848485       -0.00593939393939394     -308.4135263753089-616.655436442147i
0.02515151515151515       -0.00593939393939394     -305.7441130199554-633.0055933034876i
0.025454545454545455      -0.00593939393939394     -302.94707536348443-650.1102655453212i
0.025757575757575757      -0.00593939393939394     -300.14931581917483-667.9508559982949i
0.026060606060606062      -0.00593939393939394     -297.49657091464786-686.7562854256664i
0.026363636363636363      -0.00593939393939394     -294.52744725294696-706.7836032690851i
0.026666666666666665      -0.00593939393939394     -291.5331266797395-727.8340087721647i
0.02696969696969697       -0.00593939393939394     -288.54109513619665-749.9336222532194i
0.02727272727272727       -0.00593939393939394     -285.16727603808226-774.1370094103008i
0.027575757575757576      -0.00593939393939394     -281.5020658802822-799.819400840687i
0.027878787878787878      -0.00593939393939394     -277.80069833772205-827.0727788018196i
0.028181818181818183      -0.00593939393939394     -273.4812252570504-857.2063925825591i
0.028484848484848484      -0.00593939393939394     -268.31140435438095-890.19718474483i
0.02878787878787879       -0.00593939393939394     -263.1713855198395-926.1161408402281i
0.02909090909090909       -0.00593939393939394     -256.89998793537814-966.7420066759323i
0.029393939393939392      -0.00593939393939394     -248.8571209252693-1017.2483864246648i
0.029696969696969697      -0.00593939393939394     -242.19816492856873-1085.4542626381597i
0.03                      -0.00593939393939394     -231.1436516477329-1171.9615185248558i
0                         -0.005878787878787879    0.15821078527353538+1.0761923695954458i
3.0303030303030303E-4     -0.005878787878787879    -53.88334471319709-14.204117189881764i
6.060606060606061E-4      -0.005878787878787879    -107.23618906498447-29.28834176494108i
9.090909090909091E-4      -0.005878787878787879    -160.41385933446296-44.33989272630531i
0.0012121212121212121     -0.005878787878787879    -212.28012828355813-56.985027740870386i
0.0015151515151515152     -0.005878787878787879    -262.6441063918407-71.24607801793374i
0.0018181818181818182     -0.005878787878787879    -312.52711486423897-85.39482056954134i
0.002121212121212121      -0.005878787878787879    -360.63648704961827-97.44723835071623i
0.0024242424242424242     -0.005878787878787879    -405.16050546199267-109.8387670536854i
0.0027272727272727275     -0.005878787878787879    -448.9464595914564-122.06385600601129i
0.0030303030303030303     -0.005878787878787879    -491.5664920254952-133.0784049410292i
0.003333333333333333      -0.005878787878787879    -528.491127078585-142.65858951508346i
0.0036363636363636364     -0.005878787878787879    -564.2772884440983-152.36721729294584i
0.00393939393939394       -0.005878787878787879    -599.140740891187-161.79869538401968i
0.004242424242424242      -0.005878787878787879    -628.2072680859511-168.75611536200523i
0.004545454545454545      -0.005878787878787879    -654.9165881384606-175.75807274297475i
0.0048484848484848485     -0.005878787878787879    -680.6141113904995-182.56241652195664i
0.005151515151515152      -0.005878787878787879    -702.1489483768169-187.72315298375844i
0.005454545454545455      -0.005878787878787879    -719.6271426889109-192.1947379056943i
0.005757575757575757      -0.005878787878787879    -736.0951120480688-196.5013733887056i
0.006060606060606061      -0.005878787878787879    -750.377305943769-200.1304751172481i
0.006363636363636364      -0.005878787878787879    -759.359196066362-202.6038763901326i
0.006666666666666666      -0.005878787878787879    -767.3909182118268-204.98619409210664i
0.0069696969696969695     -0.005878787878787879    -774.3776710710779-207.267291889865i
0.007272727272727273      -0.005878787878787879    -776.7676747888984-208.71201174623982i
0.007575757575757576      -0.005878787878787879    -777.8073123771909-209.93084560234956i
0.00787878787878788       -0.005878787878787879    -778.0345336439158-211.102849241165i
0.008181818181818182      -0.005878787878787879    -775.6790027163569-212.3267063447732i
0.008484848484848484      -0.005878787878787879    -771.4285668679954-213.1351574578147i
0.008787878787878787      -0.005878787878787879    -766.5163352857544-213.9593447055063i
0.00909090909090909       -0.005878787878787879    -760.446176964094-215.2452884866855i
0.009393939393939394      -0.005878787878787879    -752.5827188735332-216.25914784601179i
0.009696969696969697      -0.005878787878787879    -744.2108938902757-217.3406781272573i
0.01                      -0.005878787878787879    -735.3049081991986-218.75048886158484i
0.010303030303030303      -0.005878787878787879    -725.3341980462868-220.58876635135007i
0.010606060606060607      -0.005878787878787879    -714.9364869637697-222.32386860042035i
0.01090909090909091       -0.005878787878787879    -704.1712354164268-224.16475402299938i
0.011212121212121211      -0.005878787878787879    -693.1456936921942-226.956017361358i
0.011515151515151515      -0.005878787878787879    -681.8309607462699-229.54396178122389i
0.011818181818181818      -0.005878787878787879    -670.2678096354035-232.2624462532607i
0.012121212121212121      -0.005878787878787879    -658.7351730612944-235.78308698385027i
0.012424242424242424      -0.005878787878787879    -647.2834255749227-239.27536850441365i
0.012727272727272728      -0.005878787878787879    -635.677804483325-242.91312886951513i
0.013030303030303031      -0.005878787878787879    -624.0715491599349-247.05330574666894i
0.013333333333333332      -0.005878787878787879    -612.9842775644153-251.53984744542115i
0.013636363636363636      -0.005878787878787879    -601.8144841781085-256.0540736989865i
0.013939393939393939      -0.005878787878787879    -590.5765831983402-260.7707746633958i
0.014242424242424242      -0.005878787878787879    -580.0356028167273-266.2112122333469i
0.014545454545454545      -0.005878787878787879    -569.5691029474738-271.5236099008786i
0.014848484848484849      -0.005878787878787879    -559.0706119652054-276.99484896222083i
0.015151515151515152      -0.005878787878787879    -549.0823039800964-283.10419382367127i
0.015454545454545455      -0.005878787878787879    -539.4425651418898-289.1339060754784i
0.01575757575757576       -0.005878787878787879    -529.805798488675-295.3274793022653i
0.01606060606060606       -0.005878787878787879    -520.4344136564813-302.0002382557927i
0.016363636363636365      -0.005878787878787879    -511.6604965397663-308.7183886156882i
0.016666666666666666      -0.005878787878787879    -502.90524709195415-315.570788232202i
0.016969696969696968      -0.005878787878787879    -494.23172081502355-322.683036249884i
0.017272727272727273      -0.005878787878787879    -486.26827743000837-330.1601712856423i
0.017575757575757574      -0.005878787878787879    -478.3655094545925-337.63364257770075i
0.01787878787878788       -0.005878787878787879    -470.5029655703479-345.2888474267816i
0.01818181818181818       -0.005878787878787879    -463.2033967570298-353.4081402935776i
0.018484848484848486      -0.005878787878787879    -456.1010189521723-361.4937614129605i
0.018787878787878787      -0.005878787878787879    -449.04702919552903-369.7771324104683i
0.019090909090909092      -0.005878787878787879    -442.34707474428217-378.4865621225437i
0.019393939393939394      -0.005878787878787879    -435.986466764726-387.20734176812715i
0.019696969696969695      -0.005878787878787879    -429.67797391490245-396.14870717874834i
0.02                      -0.005878787878787879    -423.5275652343741-405.4084455717331i
0.020303030303030302      -0.005878787878787879    -417.8836087090549-414.9203421706564i
0.020606060606060607      -0.005878787878787879    -412.2611234505302-424.5875482682202i
0.02090909090909091       -0.005878787878787879    -406.69129374931657-434.5071140061436i
0.021212121212121213      -0.005878787878787879    -401.65667487676944-444.8869799791922i
0.021515151515151515      -0.005878787878787879    -396.66651079710124-455.39688193985796i
0.02181818181818182       -0.005878787878787879    -391.7265611700677-466.20287589501845i
0.02212121212121212       -0.005878787878787879    -387.1744700065735-477.500672024006i
0.022424242424242423      -0.005878787878787879    -382.7637938466739-489.0353414759131i
0.022727272727272728      -0.005878787878787879    -378.3979669932029-500.92638909204805i
0.02303030303030303       -0.005878787878787879    -374.2550650729518-513.2984971586088i
0.023333333333333334      -0.005878787878787879    -370.40195915666243-526.1747931441005i
0.023636363636363636      -0.005878787878787879    -366.53869004823247-539.45090531359i
0.02393939393939394       -0.005878787878787879    -362.73902057327115-553.185580067936i
0.024242424242424242      -0.005878787878787879    -359.36408188262055-567.789254319186i
0.024545454545454544      -0.005878787878787879    -355.88337133388035-582.8982931785514i
0.02484848484848485       -0.005878787878787879    -352.4230776552922-598.5664405377972i
0.02515151515151515       -0.005878787878787879    -349.2984399549069-615.3114316062704i
0.025454545454545455      -0.005878787878787879    -345.96888514841356-632.9158989191252i
0.025757575757575757      -0.005878787878787879    -342.63860845408186-651.2562844431197i
0.026060606060606062      -0.005878787878787879    -339.5160407470339-670.7148074939776i
0.026363636363636363      -0.005878787878787879    -335.9081645598214-691.8018783680989i
0.026666666666666665      -0.005878787878787879    -332.2375046733352-713.8966435443757i
0.02696969696969697       -0.005878787878787879    -328.6401244582539-737.1516127108358i
0.02727272727272727       -0.005878787878787879    -324.1972859322987-763.1625475812831i
0.027575757575757576      -0.005878787878787879    -319.2950968429326-790.7469863773832i
0.027878787878787878      -0.005878787878787879    -314.3567503688101-819.9024117042279i
0.028181818181818183      -0.005878787878787879    -308.2186051006863-852.9632786564772i
0.028484848484848484      -0.005878787878787879    -300.3920153150859-889.194077722773i
0.02878787878787879       -0.005878787878787879    -292.59522759761387-928.3530407221963i
0.02909090909090909       -0.005878787878787879    -282.6951134077641-974.1943298344975i
0.029393939393939392      -0.005878787878787879    -268.39469684420874-1028.8612846016108i
0.029696969696969697      -0.005878787878787879    -255.47819129406082-1101.2277358334884i
0.03                      -0.005878787878787879    -232.94329893690661-1192.1287652314031i
0                         -0.005818181818181819    0.23554333062213867+1.492943447708785i
3.0303030303030303E-4     -0.005818181818181819    -69.22314716342287-17.373128895635165i
6.060606060606061E-4      -0.005818181818181819    -137.68714486612544-35.639877456435016i
9.090909090909091E-4      -0.005818181818181819    -205.98851052704097-53.824383203701395i
0.0012121212121212121     -0.005818181818181819    -272.4903546746728-69.2483494917215i
0.0015151515151515152     -0.005818181818181819    -336.9060485388643-86.39592858299659i
0.0018181818181818182     -0.005818181818181819    -400.84077276717227-103.4311999488161i
0.002121212121212121      -0.005818181818181819    -462.43730161629213-117.9451020319806i
0.0024242424242424242     -0.005818181818181819    -518.9277925662918-132.5150189220094i
0.0027272727272727275     -0.005818181818181819    -574.6802192333737-146.91849606139357i
0.0030303030303030303     -0.005818181818181819    -628.8182007499759-159.93893992311897i
0.003333333333333333      -0.005818181818181819    -675.3400636259115-170.71764518947873i
0.0036363636363636364     -0.005818181818181819    -720.3497886415694-181.66593076623496i
0.00393939393939394       -0.005818181818181819    -764.2966829884284-192.17912910753842i
0.004242424242424242      -0.005818181818181819    -800.3043362149288-199.65901660161984i
0.004545454545454545      -0.005818181818181819    -833.1459135995357-206.89544354411845i
0.0048484848484848485     -0.005818181818181819    -864.9756941836634-213.93425688462796i
0.005151515151515152      -0.005818181818181819    -891.0298975952062-218.7959450532141i
0.005454545454545455      -0.005818181818181819    -911.5533285149475-222.57090977923022i
0.005757575757575757      -0.005818181818181819    -931.0665344817456-226.18092506632092i
0.006060606060606061      -0.005818181818181819    -947.6004675602863-228.91694125102515i
0.006363636363636364      -0.005818181818181819    -957.0133026443937-229.9841560081016i
0.006666666666666666      -0.005818181818181819    -965.3402640764069-230.9646564712174i
0.0069696969696969695     -0.005818181818181819    -972.3443299236212-231.80252604425687i
0.007272727272727273      -0.005818181818181819    -973.2589143774146-231.50485305976642i
0.007575757575757576      -0.005818181818181819    -972.4251244685491-230.91274306891833i
0.00787878787878788       -0.005818181818181819    -970.7789182381212-230.27380286077653i
0.008181818181818182      -0.005818181818181819    -965.5596829500379-229.62896724392027i
0.008484848484848484      -0.005818181818181819    -957.9323392830674-228.50400975215365i
0.008787878787878787      -0.005818181818181819    -949.6431998822184-227.39478839503727i