% Model:              FEA.mph
% Version:            COMSOL 6.0.0.318
% Date:               Jul 28 2022, 15:48
% Dimension:          3
% Nodes:              500
% Expressions:        3
% Description:        Magnetic flux density, x component, Magnetic flux density, y component, Magnetic flux density, z component
% Length unit:        m
% x                       y                        z                        mf.Bx (T) @ freq=500, Material Switch 1=Stainless Steel mf.By (T) @ freq=500, Material Switch 1=Stainless Steel mf.Bz (T) @ freq=500, Material Switch 1=Stainless Steel
-0.03                     0                        0.0015                   -2.189691294085549E-6+2.0911068701493835E-6i      -4.778169314574067E-8-9.162356622510011E-10i      -1.2497719201295845E-4+1.3308455419103435E-6i
-0.029879759519038075     0                        0.0015                   -2.1785647424780747E-6+2.1277282778596037E-6i     -2.0165593023332637E-8+2.362424976441193E-10i     -1.2686977611922043E-4+1.3256263197021623E-6i
-0.02975951903807615      0                        0.0015                   -2.16743819087201E-6+2.1643496855698222E-6i       7.450507098858555E-9+1.3887206575324633E-9i       -1.2876236022548338E-4+1.3204070974939988E-6i
-0.029639278557114228     0                        0.0015                   -2.1563116392634514E-6+2.200971093280024E-6i      3.506660722126659E-8+2.5411988174208074E-9i       -1.306549443317446E-4+1.3151878752858303E-6i
-0.029519038076152304     0                        0.0015                   -2.145185087655977E-6+2.237592500990232E-6i       6.26827073441083E-8+3.693676977322704E-9i         -1.3254752843800652E-4+1.3099686530776567E-6i
-0.02939879759519038      0                        0.0015                   -2.1340585360496954E-6+2.2742139087004677E-6i     9.029880746695002E-8+4.846155137231377E-9i        -1.3444011254426844E-4+1.3047494308694504E-6i
-0.029278557114228457     0                        0.0015                   -3.349092385282812E-6+2.309115490583578E-6i       6.075097921681856E-7+9.353648300110403E-9i        -1.3656138879558752E-4+1.3012095539207076E-6i
-0.029158316633266533     0                        0.0015                   -2.7484225501148844E-6+2.36193773458142E-6i       -4.491232506059241E-7+2.2517303960844506E-9i      -1.3865453515594407E-4+1.2956180975633394E-6i
-0.02903807615230461      0                        0.0015                   -2.9180211245654163E-6+2.4025905318213638E-6i     -4.196096949050064E-7-2.302380854619522E-9i       -1.4079938744031404E-4+1.2901783120826535E-6i
-0.028917835671342686     0                        0.0015                   -3.0876196990208644E-6+2.4432433290613808E-6i     -3.9009613920213716E-7-6.856492105391257E-9i      -1.4294423972468183E-4+1.2847385266019236E-6i
-0.028797595190380762     0                        0.0015                   -3.2572182734718605E-6+2.483896126301325E-6i      -3.605825834992679E-7-1.1410603356098618E-8i      -1.4508909200905174E-4+1.279298741121236E-6i
-0.02867735470941884      0                        0.0015                   -3.5508989850123593E-6+2.532737151153907E-6i      -3.8032975687427896E-7+4.3234717633742754E-9i     -1.4733086774946244E-4+1.269614997412919E-6i
-0.028557114228456915     0                        0.0015                   -3.7020990786211343E-6+2.578366560109006E-6i      -3.884624232314716E-7+2.5644737183245613E-9i      -1.5002169928558193E-4+1.2592683230535193E-6i
-0.028436873747494987     0                        0.0015                   -3.853299172229801E-6+2.6239959690640915E-6i      -3.965950895914831E-7+8.054756732951761E-10i      -1.5271253082170088E-4+1.248921648694077E-6i
-0.028316633266533064     0                        0.0015                   -4.004499265842154E-6+2.6696253780192075E-6i      -4.047277559491094E-7-9.535223717477617E-10i      -1.5540336235781915E-4+1.2385749743346444E-6i
-0.02819639278557114      0                        0.0015                   -4.155699359452338E-6+2.7152547869743252E-6i      -4.1286042230781993E-7-2.712520416780535E-9i      -1.5809419389393819E-4+1.228228299975218E-6i
-0.028076152304609216     0                        0.0015                   -4.306899453062848E-6+2.760884195929426E-6i       -4.20993088666422E-7-4.4715184618133086E-9i       -1.607850254300566E-4+1.2178816256157878E-6i
-0.027955911823647293     0                        0.0015                   -4.497334352457621E-6+2.8099687838167042E-6i      -3.42520197471434E-7-8.320244378728491E-9i        -1.6337762292247443E-4+1.204451284810865E-6i
-0.02783567134268537      0                        0.0015                   -3.7226077352985575E-6+2.864234218042115E-6i      3.1224170586379926E-7-6.5607431465363516E-9i      -1.6579030066500355E-4+1.2017355442116355E-6i
-0.027715430861723445     0                        0.0015                   -4.064663936105984E-6+2.9129517050724716E-6i      3.0895596858605476E-7-3.587401375342947E-9i       -1.6854977430804633E-4+1.1906544223916396E-6i
-0.02759519038076152      0                        0.0015                   -4.406720136914712E-6+2.961669192102835E-6i       3.0567023130874393E-7-6.140596041563184E-10i      -1.7130924795108514E-4+1.1795733005715683E-6i
-0.027474949899799598     0                        0.0015                   -4.748776337720403E-6+3.0103866791332117E-6i      3.023844940314331E-7+2.3592821670370863E-9i       -1.7406872159412775E-4+1.1684921787515682E-6i
-0.027354709418837674     0                        0.0015                   -5.090832538526963E-6+3.0591041661635444E-6i      2.990987567541223E-7+5.332623938210162E-9i        -1.768281952371689E-4+1.157411056931536E-6i
-0.02723446893787575      0                        0.0015                   -5.432888739336991E-6+3.1078216531939483E-6i      2.958130194763778E-7+8.305965709410343E-9i        -1.795876688802094E-4+1.1463299351114918E-6i
-0.027114228456913827     0                        0.0015                   -5.77494494014496E-6+3.1565391402243132E-6i       2.9252728219950064E-7+1.1279307480596972E-8i      -1.8234714252325103E-4+1.135248813291462E-6i
-0.026993987975951903     0                        0.0015                   -6.11700114094994E-6+3.205256627254645E-6i        2.892415449226235E-7+1.4252649251770048E-8i       -1.8510661616629153E-4+1.124167691471456E-6i
-0.02687374749498998      0                        0.0015                   -5.332183819124184E-6+3.270445182431261E-6i       6.282172371405159E-7+6.7897776242736136E-9i       -1.9014835093987732E-4+1.0850405875858289E-6i
-0.026753507014028056     0                        0.0015                   -5.071839824721748E-6+3.3349114067625458E-6i      -2.21078091123747E-7+5.895345669997736E-9i        -1.9188632976699577E-4+1.0868217104054862E-6i
-0.026633266533066132     0                        0.0015                   -5.358858218369213E-6+3.393826584305071E-6i       -1.900330273999981E-7+2.4541910997194234E-9i      -1.9546752446064468E-4+1.0682547104166587E-6i
-0.02651302605210421      0                        0.0015                   -5.645876612016352E-6+3.452741761847522E-6i       -1.5898796367277979E-7-9.869634706130993E-10i     -1.9904871915429732E-4+1.0496877104278414E-6i
-0.026392785571142285     0                        0.0015                   -5.932895005664358E-6+3.511656939390027E-6i       -1.2794289994642882E-7-4.428118040972727E-9i      -2.026299138479479E-4+1.0311207104389987E-6i
-0.02627254509018036      0                        0.0015                   -6.219913399309329E-6+3.5705721169324776E-6i      -9.689783622094522E-8-7.86927261130525E-9i        -2.0621110854159984E-4+1.0125537104501458E-6i
-0.026152304609218437     0                        0.0015                   -6.5069317929603715E-6+3.629487294475037E-6i      -6.585277249546162E-8-1.1310427181664877E-8i      -2.097923032352495E-4+9.939867104613301E-7i
-0.02603206412825651      0                        0.0015                   -5.670259391395019E-6+3.705119891936139E-6i       5.343786984127489E-7-4.400400125570181E-9i        -2.1453016966003357E-4+9.598693926699334E-7i
-0.025911823647294586     0                        0.0015                   -5.432397748000861E-6+3.773169257158303E-6i       5.424810816670933E-7-1.5894290905045774E-8i       -2.1780655845540743E-4+9.497044997918512E-7i
-0.025791583166332663     0                        0.0015                   -5.747849441803312E-6+3.840238331230718E-6i       5.47554445669003E-7-8.085424346060855E-9i         -2.215882845640507E-4+9.279836651301371E-7i
-0.02567134268537074      0                        0.0015                   -6.0633011356035944E-6+3.907307405303078E-6i      5.526278096707637E-7-2.7655778706132466E-10i      -2.253700106726931E-4+9.062628304684128E-7i
-0.025551102204408815     0                        0.0015                   -6.378752829405612E-6+3.9743764793754655E-6i      5.577011736730393E-7+7.532308771934394E-9i        -2.2915173678133617E-4+8.845419958066936E-7i
-0.02543086172344689      0                        0.0015                   -6.694204523206328E-6+4.041445553447826E-6i       5.627745376748407E-7+1.534117533093964E-8i        -2.3293346288997836E-4+8.628211611449608E-7i
-0.025310621242484968     0                        0.0015                   -7.0096562170082364E-6+4.1085146275201955E-6i     5.678479016758831E-7+2.3150041889946583E-8i       -2.367151889986212E-4+8.411003264832467E-7i
-0.025190380761523044     0                        0.0015                   -7.295321306467588E-6+4.191524191013059E-6i       5.906498894794367E-7-2.71593583125345E-9i         -2.409284865284923E-4+8.08811543876197E-7i
-0.02507014028056112      0                        0.0015                   -7.542871020570913E-6+4.268452362140016E-6i       5.340065598389947E-7-9.479812100240959E-10i       -2.459275416616197E-4+7.721602044387902E-7i
-0.024949899799599197     0                        0.0015                   -7.790420734678574E-6+4.345380533267006E-6i       4.773632302015884E-7+8.199734111917056E-10i       -2.509265967947502E-4+7.355088650014525E-7i
-0.024829659318637273     0                        0.0015                   -8.0379704487832E-6+4.422308704393956E-6i         4.2071990056504957E-7+2.587928032407507E-9i       -2.559256519278805E-4+6.988575255641017E-7i
-0.02470941883767535      0                        0.0015                   -8.28552016288956E-6+4.4992368755209465E-6i       3.640765709263423E-7+4.355882653636861E-9i        -2.609247070610095E-4+6.622061861267E-7i
-0.024589178356713426     0                        0.0015                   -8.533069876995921E-6+4.576165046647957E-6i       3.0743324128980343E-7+6.123837274872991E-9i       -2.6592376219413874E-4+6.255548466893527E-7i
-0.024468937875751502     0                        0.0015                   -8.780619591097945E-6+4.6530932177748935E-6i      2.507899116502288E-7+7.891791896078628E-9i        -2.709228173272671E-4+5.889035072519749E-7i
-0.02434869739478958      0                        0.0015                   -8.117554046824455E-6+4.747061796212445E-6i       2.8620353166412815E-8+3.7179937960737594E-9i      -2.7617358752700177E-4+5.448082671097838E-7i
-0.024228456913827655     0                        0.0015                   -8.706688184065108E-6+4.8210477487888165E-6i      3.556315012263715E-7+4.440797695958677E-9i        -2.8111978198884166E-4+5.08704158323367E-7i
-0.02410821643286573      0                        0.0015                   -9.295822321302074E-6+4.895033701365166E-6i       6.826426492892576E-7+5.163601595855452E-9i        -2.8606597645067965E-4+4.7260004953688294E-7i
-0.023987975951903807     0                        0.0015                   -9.884956458545437E-6+4.9690196539414985E-6i      1.0096537973505173E-6+5.886405495687854E-9i       -2.9101217091251423E-4+4.3649594075042605E-7i
-0.023867735470941884     0                        0.0015                   -8.514969184521097E-6+5.128240328873392E-6i       -7.20517298647555E-7-3.7931151269086395E-8i       -2.9623214058461557E-4+4.085975792063063E-7i
-0.02374749498997996      0                        0.0015                   -8.688190533737519E-6+5.210373767104348E-6i       -7.25076671630881E-7-4.655337687206867E-8i        -3.0110487595329596E-4+3.727366367032171E-7i
-0.023627254509018036     0                        0.0015                   -8.37801703763841E-6+5.316919177833982E-6i        -9.02193906832105E-7+2.6329051172298886E-8i       -3.08361459506459E-4+3.033567783048845E-7i
-0.023507014028056113     0                        0.0015                   -7.907352059235637E-6+5.374735121722426E-6i       9.113734210104002E-8+1.0589436969172302E-8i       -3.1447451749312336E-4+2.595080924847916E-7i
-0.02338677354709419      0                        0.0015                   -8.239159533209722E-6+5.465192887483373E-6i       -2.0814797647376176E-7-2.055437964539682E-9i      -3.2081657123756227E-4+2.0206607054119147E-7i
-0.023266533066132265     0                        0.0015                   -6.932243033420937E-6+5.562079998455152E-6i       4.102686860878689E-7-1.428653828756016E-8i        -3.242389434652596E-4+1.8112926631285577E-7i
-0.02314629258517034      0                        0.0015                   -6.7922161936413705E-6+5.664915114695371E-6i      3.3982402964337355E-7-1.1824772508756902E-8i      -3.310569456674475E-4+1.095393530042736E-7i
-0.023026052104208418     0                        0.0015                   -6.652189353860069E-6+5.76775023093559E-6i        2.693793731984445E-7-9.363006729943478E-9i        -3.378749478696445E-4+3.7949439695784596E-8i
-0.022905811623246494     0                        0.0015                   -6.5121625140857065E-6+5.870585347175783E-6i      1.9893471675351548E-7-6.9012409511334425E-9i      -3.4469295007183475E-4-3.3640473612762E-8i
-0.02278557114228457      0                        0.0015                   -6.372135674309609E-6+5.973420463416083E-6i       1.2849006030902013E-7-4.439475172323407E-9i       -3.51510952274025E-4-1.0523038692133232E-7i
-0.022665330661322647     0                        0.0015                   -6.232108834528308E-6+6.076255579656181E-6i       5.804540386452478E-8-1.9777093935065954E-9i       -3.58328954476222E-4-1.7682030022980776E-7i
-0.02254509018036072      0                        0.0015                   -6.092081994750476E-6+6.179090695896427E-6i       -1.2399252580404252E-8+4.840563853000519E-10i     -3.6514695667841444E-4-2.484102135383442E-7i
-0.022424849699398796     0                        0.0015                   -5.952055154975246E-6+6.281925812136647E-6i       -8.284390902533328E-8+2.9458221641100873E-9i      -3.7196495888060666E-4-3.200001268468942E-7i
-0.022304609218436872     0                        0.0015                   -5.812028315196546E-6+6.384760928376866E-6i       -1.5328856547047916E-7+5.407587942935369E-9i      -3.7878296108279975E-4-3.915900401554103E-7i
-0.02218436873747495      0                        0.0015                   -5.672001475419582E-6+6.487596044617065E-6i       -2.2373322191508293E-7+7.869353721745405E-9i      -3.856009632849935E-4-4.631799534639467E-7i
-0.022064128256513025     0                        0.0015                   -5.531974635642183E-6+6.59043116085723E-6i        -2.9417787835936144E-7+1.0331119500548664E-8i     -3.924189654871855E-4-5.347698667724594E-7i
-0.0219438877755511       0                        0.0015                   -5.391947795863484E-6+6.6932662770974896E-6i      -3.646225348043989E-7+1.2792885279368864E-8i      -3.9923696768937576E-4-6.063597800809891E-7i
-0.021823647294589178     0                        0.0015                   -5.251920956084351E-6+6.796101393337689E-6i       -4.35067191249599E-7+1.5254651058172546E-8i       -4.060549698915671E-4-6.779496933895052E-7i
-0.021703406813627254     0                        0.0015                   1.5320301542475325E-7+6.993450260902676E-6i       -1.3489757212937744E-6+2.075138818451271E-9i      -4.1876058955226086E-4-8.514511573296279E-7i
-0.02158316633266533      0                        0.0015                   4.99170735894264E-7+7.094682446763658E-6i         -9.187876151571018E-7+2.8006675385611067E-9i      -4.273442340025837E-4-9.377954545498448E-7i
-0.021462925851703406     0                        0.0015                   2.6631138650984326E-6+7.252519192352879E-6i       -1.6404060117780356E-6+2.124984339349717E-8i      -4.323115254551822E-4-9.131593332108529E-7i
-0.021342685370741483     0                        0.0015                   6.256009699387617E-6+7.377225553861625E-6i        -1.2832989614813654E-6+1.7336793525871705E-8i     -4.404915163642476E-4-1.042136828165533E-6i
-0.02122244488977956      0                        0.0015                   9.848905533682995E-6+7.5019319153705E-6i          -9.261919111866468E-7+1.3423743658307226E-8i      -4.486715072733019E-4-1.1711143231201771E-6i
-0.021102204408817635     0                        0.0015                   1.344180136797447E-5+7.626638276879329E-6i        -5.690848608940965E-7+9.510693790729195E-9i       -4.5685149818236047E-4-1.3000918180748017E-6i
-0.02098196392785571      0                        0.0015                   1.7034697202264644E-5+7.751344638388141E-6i       -2.1197781059894422E-7+5.597643923151163E-9i      -4.650314890914133E-4-1.4290693130294958E-6i
-0.020861723446893785     0                        0.0015                   2.0627593036553517E-5+7.876050999896997E-6i       1.4512923969707547E-7+1.6845940555324738E-9i      -4.732114800004672E-4-1.5580468079841661E-6i
-0.02074148296593186      0                        0.0015                   2.4220488870846726E-5+8.00075736140586E-6i        5.022362899922278E-7-2.228455812052334E-9i        -4.8139147090952715E-4-1.6870243029387941E-6i
-0.020621242484969937     0                        0.0015                   2.781338470513213E-5+8.125463722914717E-6i        8.593433402873801E-7-6.1415056796506945E-9i       -4.89571461818583E-4-1.8160017978934628E-6i
-0.020501002004008013     0                        0.0015                   3.140628053942794E-5+8.250170084423498E-6i        1.2164503905842672E-6-1.0054555547262607E-8i      -4.977514527276408E-4-1.9449792928481246E-6i
-0.02038076152304609      0                        0.0015                   3.499917637371508E-5+8.374876445932375E-6i        1.5735574408794195E-6-1.3967605414860968E-8i      -5.059314436366971E-4-2.0739567878027526E-6i
-0.020260521042084166     0                        0.0015                   4.46164801503556E-5+8.503432266249167E-6i         6.957950558173984E-7+4.4075333511836936E-10i      -5.131463037963047E-4-2.2043796955742356E-6i
-0.020140280561122242     0                        0.0015                   4.9504590605350506E-5+8.659804116782891E-6i       1.062362601715334E-6-2.2163572224491652E-10i      -5.210195649476256E-4-2.3284683911626935E-6i
-0.02002004008016032      0                        0.0015                   5.843033704366202E-5+8.761664286030052E-6i        1.957082538603036E-6+1.1497721306013848E-7i       -5.357641222321027E-4-2.482646355161116E-6i
-0.019899799599198395     0                        0.0015                   6.653462415829193E-5+8.936915304853771E-6i        1.0151748069328614E-6+9.14326523147413E-8i        -5.425734239064158E-4-2.6681722075336255E-6i
-0.01977955911823647      0                        0.0015                   7.519384315573976E-5+9.185418448908073E-6i        -1.3917604913295245E-6+2.1002121719417965E-8i     -5.494574402921436E-4-2.847859564647492E-6i
-0.019659318637274548     0                        0.0015                   8.730118396556069E-5+9.321192573176885E-6i        -2.4594590509151304E-6-4.085328103912121E-10i     -5.571166307123299E-4-3.02699705544975E-6i
-0.019539078156312624     0                        0.0015                   9.940852477537251E-5+9.45696669744572E-6i         -3.5271576105007363E-6-2.181918734021394E-8i      -5.647758211325192E-4-3.206134546252001E-6i
-0.0194188376753507       0                        0.0015                   1.1151586558518422E-4+9.592740821714543E-6i       -4.594856170088077E-6-4.3229841870050223E-8i      -5.724350115527063E-4-3.3852720370542183E-6i
-0.019298597194388777     0                        0.0015                   1.2362320639499116E-4+9.728514945983396E-6i       -5.662554729677152E-6-6.464049639987295E-8i       -5.8009420197289E-4-3.5644095278565033E-6i
-0.019178356713426853     0                        0.0015                   1.3573054720480895E-4+9.864289070252231E-6i       -6.730253289267962E-6-8.605115092964147E-8i       -5.877533923930736E-4-3.7435470186587916E-6i
-0.01905811623246493      0                        0.0015                   1.5242021385676076E-4+1.0043772258256426E-5i      -5.12628835939305E-6-1.416254455896581E-8i        -5.813173367367986E-4-4.034040371368723E-6i
-0.018937875751503006     0                        0.0015                   1.7482331035328577E-4+1.0172063363885865E-5i      -4.217396466629428E-7-1.3107273307229382E-8i      -5.934918223501953E-4-4.2586364749667985E-6i
-0.018817635270541082     0                        0.0015                   1.9722640684981252E-4+1.0300354469515128E-5i      4.282809066063695E-6-1.2052002055415028E-8i       -6.056663079635931E-4-4.483232578564876E-6i
-0.018697394789579158     0                        0.0015                   2.120637945695683E-4+1.05228710519342E-5i         1.3553486806240633E-6+2.4891678762211126E-8i      -6.160665170582484E-4-4.701474402888248E-6i
-0.018577154308617234     0                        0.0015                   2.3359578608831387E-4+1.0687696392736853E-5i      2.9910702319183025E-6+5.5331278426699925E-8i      -6.268947973055274E-4-4.9252162214698375E-6i
-0.01845691382765531      0                        0.0015                   2.551277776070525E-4+1.0852521733539656E-5i       4.626791783212542E-6+8.577087809113451E-8i        -6.377230775528233E-4-5.148958040051241E-6i
-0.018336673346693387     0                        0.0015                   3.22656923202435E-4+1.0910653949523168E-5i        -2.497964035593934E-6+1.2723665293077295E-9i      -6.06597903287102E-4-5.510427862986703E-6i
-0.018216432865731463     0                        0.0015                   3.8622245039623623E-4+1.0818335706767713E-5i      -4.453893424932482E-5+3.074599377590371E-7i       -6.207034610969109E-4-5.74709783334029E-6i
-0.01809619238476954      0                        0.0015                   4.0760786229109697E-4+1.1039969329047978E-5i      -4.428713200075457E-5+2.430757522555265E-7i       -6.05650055850027E-4-6.05683794818775E-6i
-0.017975951903807616     0                        0.0015                   4.1946048595014164E-4+1.1492323169603858E-5i      -2.4680395561938254E-5+8.069123064740642E-8i      -6.083858079987048E-4-6.368315511903412E-6i
-0.017855711422845692     0                        0.0015                   4.5598258014135787E-4+1.1648743556994653E-5i      -2.6232472303910556E-5+3.2381690025562785E-8i     -6.037956395485936E-4-6.6459078569818805E-6i
-0.01773547094188377      0                        0.0015                   4.925046743325789E-4+1.1805163944385407E-5i       -2.7784549045886328E-5-1.5927850596246973E-8i     -5.992054710985181E-4-6.923500202060166E-6i
-0.017615230460921845     0                        0.0015                   5.92412294639336E-4+1.1923404792864566E-5i        2.277861194538433E-5+1.1834744813326746E-7i       -6.774292035635933E-4-7.162014102477876E-6i
-0.01749498997995992      0                        0.0015                   6.850176155113324E-4+1.1977337227908695E-5i       8.628983852523864E-7+3.4464907008472994E-8i       -6.135177874621658E-4-7.562815185351967E-6i
-0.017374749498997998     0                        0.0015                   7.937451066510545E-4+1.2094857765726147E-5i       1.6602504930317286E-5+2.5045503225713285E-8i      -6.101652027923309E-4-7.920789198546892E-6i
-0.017254509018036074     0                        0.0015                   9.024725977907905E-4+1.2212378303543437E-5i       3.2342111475375246E-5+1.5626099442899366E-8i      -6.068126181224889E-4-8.278763211741816E-6i
-0.01713426853707415      0                        0.0015                   0.0010341197844244993+1.197654451132906E-5i       1.5799982392861005E-5-1.9912548819665273E-7i      -5.488974016839114E-4-8.514691256653867E-6i
-0.017014028056112226     0                        0.0015                   0.0011165641976739315+1.212784051182543E-5i       1.3093485782818097E-5-1.6687692752827147E-7i      -5.260983082767973E-4-8.905312093823194E-6i
-0.016893787575150303     0                        0.0015                   0.0011990086109233767+1.2279136512321794E-5i      1.0386989172777791E-5-1.3462836685988343E-7i      -5.032992148696624E-4-9.295932930992738E-6i
-0.01677354709418838      0                        0.0015                   0.0012814530241728062+1.2430432512818222E-5i      7.680492562735751E-6-1.02379806191492E-7i         -4.8050012146254317E-4-9.686553768162065E-6i
-0.016653306613226452     0                        0.0015                   0.0013638974374222575+1.25817285133145E-5i        4.9739959526937105E-6-7.013124552311412E-8i       -4.577010280554152E-4-1.0077174605331541E-5i
-0.016533066132264528     0                        0.0015                   0.0014463418506716948+1.2733024513810854E-5i      2.267499342652971E-6-3.7882684854726085E-8i       -4.34901934648302E-4-1.0467795442500889E-5i
-0.016412825651302605     0                        0.0015                   0.0015287862639211394+1.2884320514307188E-5i      -4.389972673895029E-7-5.634124186319411E-9i       -4.121028412411862E-4-1.0858416279670297E-5i
-0.01629258517034068      0                        0.0015                   0.0016112306771705817+1.3035616514803513E-5i      -3.145493877430676E-6+2.6614436482051687E-8i      -3.893037478340509E-4-1.1249037116839752E-5i
-0.016172344689378757     0                        0.0015                   0.002003173515361677+1.286683261125858E-5i        -1.6139620165307104E-4+4.1236015618824837E-7i     3.317817233920231E-4-1.2153414723845865E-5i
-0.016052104208416833     0                        0.0015                   0.002358037293363543+1.2579261383799736E-5i       1.2748811755236003E-4-2.314197251435436E-7i       5.630304746565146E-4-1.1779279608934378E-5i
-0.01593186372745491      0                        0.0015                   0.002395832762190263+1.2686215017437859E-5i       1.2865045797223873E-4-1.8804558452963585E-7i      7.350389383143745E-4-1.2373502387420535E-5i
-0.015811623246492986     0                        0.0015                   0.002433628231016953+1.2793168651076143E-5i       1.2981279839210502E-4-1.4467144391568616E-7i      9.070474019722309E-4-1.2967725165906639E-5i
-0.015691382765531062     0                        0.0015                   0.00270615300032125+1.2462824061278801E-5i        -1.669736306463311E-4-1.1964840483080753E-7i      9.156688258115321E-4-1.2848219279650029E-5i
-0.015571142284569139     0                        0.0015                   0.0027527905230134955+1.2392195195153778E-5i      -1.72732632667955E-4-1.1096229657223418E-7i       0.001181962448352215-1.3399519996119597E-5i
-0.015450901803607215     0                        0.0015                   0.003026222939404277+1.2953445768549687E-5i       -1.4457247721499857E-4-5.5317671167443555E-8i     0.0012603377033815165-1.4510862660054388E-5i
-0.015330661322645291     0                        0.0015                   0.003082764001132164+1.2845477732747611E-5i       -8.893315673576393E-5-6.112036886196393E-8i       0.0016138050223199543-1.4957067314314027E-5i
-0.015210420841683366     0                        0.0015                   0.0031393050628600663+1.2737509696945501E-5i      -3.329383625651997E-5-6.69230665564462E-8i        0.001967272341258386-1.5403271968573545E-5i
-0.015090180360721442     0                        0.0015                   0.003579456195393925+1.2988013420304935E-5i       3.319020327125844E-5-1.2691341076131464E-8i       0.002115613039182538-1.6075391510230625E-5i
-0.014969939879759519     0                        0.0015                   0.003576435886376181+1.2860777424174956E-5i       2.5478773750343096E-5-2.040548182399675E-8i       0.0026014209306682934-1.645902649019333E-5i
-0.014849699398797595     0                        0.0015                   0.003573415577358476+1.2733541428044715E-5i       1.7767344229422223E-5-2.811962257185907E-8i       0.0030872288221540445-1.684266147015601E-5i
-0.014729458917835671     0                        0.0015                   0.0035703952683407655+1.260630543191453E-5i       1.0055914708509374E-5-3.583376331973198E-8i       0.0035730367136397796-1.7226296450118733E-5i
-0.014609218436873747     0                        0.0015                   0.0035673749593230692+1.2479069435784434E-5i      2.3444851875926206E-6-4.354790406759006E-8i       0.004058844605125564-1.7609931430081508E-5i
-0.014488977955911824     0                        0.0015                   0.003564354650305327+1.2351833439654328E-5i       -5.366944333322831E-6-5.1262044815464665E-8i      0.004544652496611292-1.7993566410044147E-5i
-0.014368737474949898     0                        0.0015                   0.0035613343412876208+1.222459744352422E-5i       -1.3078373854244572E-5-5.897618556331767E-8i      0.005030460388097043-1.837720139000688E-5i
-0.014248496993987975     0                        0.0015                   0.0032361134075685662+1.195583300812158E-5i       5.413021915023734E-6-1.636439391896412E-8i        0.0051455252563701575-1.8918761294149314E-5i
-0.014128256513026051     0                        0.0015                   0.0031007289186286294+1.1699209640329877E-5i      -1.1335402579802298E-6-1.6579694536101772E-8i     0.005387743719411311-1.943306091925855E-5i