% Model:              FEA_only_electromagnet.mph
% Version:            COMSOL 5.1.0.145
% Date:               Jun 23 2022, 11:54
% Dimension:          3
% Nodes:              500
% Expressions:        3
% Description:        Magnetic flux density, x component, Magnetic flux density, y component, Magnetic flux density, z component
% Length unit:        m
% x                       y                        z                        mf.Bx (T) @ freq=500                              mf.By (T) @ freq=500                              mf.Bz (T) @ freq=500
-0.03                     0                        0.0015                   1.2730704940515E-5-5.3640905513904703E-11i        -2.1970664873386444E-7+9.399895492109223E-13i     -7.180069173105743E-5+3.0225695509919543E-10i
-0.029879759519038075     0                        0.0015                   1.3218666248156818E-5-5.569794813319175E-11i      -5.789911466438371E-7+2.4522407375448165E-12i     -7.299379316487694E-5+3.0728399991492564E-10i
-0.02975951903807615      0                        0.0015                   1.392821913008044E-5-5.86922891772043E-11i        -4.80170863877377E-7+2.0364645621507046E-12i      -7.428073534924005E-5+3.1268055897379633E-10i
-0.029639278557114228     0                        0.0015                   1.4637772012003847E-5-6.168663022121645E-11i      -3.81350581110944E-7+1.620688386758764E-12i       -7.556767753360202E-5+3.1807711803266526E-10i
-0.029519038076152304     0                        0.0015                   1.5347324893927727E-5-6.468097126522868E-11i      -2.825302983444568E-7+1.2049122113655311E-12i     -7.685461971796475E-5+3.23473677091534E-10i
-0.02939879759519038      0                        0.0015                   1.605687777585103E-5-6.767531230924164E-11i       -1.837100155780238E-7+7.891360359718845E-13i      -7.814156190232724E-5+3.2887023615040463E-10i
-0.029278557114228457     0                        0.0015                   1.6766430657774356E-5-7.066965335325226E-11i      -8.48897328115366E-8+3.7335986057823796E-13i      -7.942850408668912E-5+3.342667952092722E-10i
-0.029158316633266533     0                        0.0015                   1.7475983539698095E-5-7.366399439726484E-11i      1.3930549954842188E-8-4.2416314814581436E-14i     -8.071544627105193E-5+3.3966335426814233E-10i
-0.02903807615230461      0                        0.0015                   1.8018836344240508E-5-7.595526922263276E-11i      -1.1471541646472695E-6+4.845484383249469E-12i     -8.220364999400397E-5+3.459068927711992E-10i
-0.028917835671342686     0                        0.0015                   1.8668194099723407E-5-7.869455717096332E-11i      -9.171489529709613E-7+3.877371193515083E-12i      -8.37817681740076E-5+3.5252936769171673E-10i
-0.028797595190380762     0                        0.0015                   1.9317551855205154E-5-8.143384511929269E-11i      -6.87143741294653E-7+2.9092580037806978E-12i      -8.535988635401179E-5+3.5915184261223593E-10i
-0.02867735470941884      0                        0.0015                   1.9966909610687494E-5-8.417313306762315E-11i      -4.571385296180195E-7+1.9411448140455885E-12i     -8.693800453401571E-5+3.6577431753275456E-10i
-0.028557114228456915     0                        0.0015                   2.0616267366170365E-5-8.691242101595438E-11i      -2.2713331794172484E-7+9.730316243109962E-13i     -8.851612271401998E-5+3.7239679245327485E-10i
-0.028436873747494987     0                        0.0015                   2.1265625121652505E-5-8.965170896428342E-11i      2.8718937344478787E-9+4.918434577334465E-15i      -9.009424089402398E-5+3.790192673737929E-10i
-0.028316633266533064     0                        0.0015                   2.1914982877134943E-5-9.239099691261467E-11i      2.3287710541081033E-7-9.631947551571544E-13i      -9.167235907402834E-5+3.85641742294312E-10i
-0.02819639278557114      0                        0.0015                   2.256434063261719E-5-9.513028486094372E-11i       4.62882317087227E-7-1.9313079448909196E-12i       -9.325047725403224E-5+3.9226421721483147E-10i
-0.028076152304609216     0                        0.0015                   2.321369838809955E-5-9.786957280927469E-11i       6.928875287636708E-7-2.8994211346262356E-12i      -9.482859543403637E-5+3.988866921353493E-10i
-0.027955911823647293     0                        0.0015                   2.3863056143582064E-5-1.006088607576053E-10i      9.22892740439857E-7-3.867534324360104E-12i        -9.640671361404015E-5+4.055091670558691E-10i
-0.02783567134268537      0                        0.0015                   2.4512413899064228E-5-1.0334814870593527E-10i     1.152897952116206E-6-4.835647514094903E-12i       -9.798483179404422E-5+4.12131641976388E-10i
-0.027715430861723445     0                        0.0015                   2.516177165454678E-5-1.0608743665426493E-10i      1.3829031637929817E-6-5.803760703828255E-12i      -9.95629499740484E-5+4.1875411689690594E-10i
-0.02759519038076152      0                        0.0015                   2.581112941002949E-5-1.0882672460259572E-10i      1.61290837546868E-6-6.771873893564088E-12i        -1.011410681540527E-4+4.2537659181742504E-10i
-0.027474949899799598     0                        0.0015                   2.832155449472882E-5-1.1942441537545693E-10i      -1.004428924425172E-7+4.4238732759951985E-13i     -1.0275426329463234E-4+4.321237466085551E-10i
-0.027354709418837674     0                        0.0015                   2.9247093839889743E-5-1.2332910292394008E-10i     -2.4135803711843306E-7+1.0374769940086416E-12i    -1.0434091046368739E-4+4.387789094430075E-10i
-0.02723446893787575      0                        0.0015                   3.0172633185051867E-5-1.2723379047243166E-10i     -3.822731817925498E-7+1.632566660406131E-12i      -1.0592755763274057E-4+4.4543407227746797E-10i
-0.027114228456913827     0                        0.0015                   3.108848014974035E-5-1.3109679496909458E-10i      -3.948309260417822E-7+1.6782378366688114E-12i     -1.0999133540339954E-4+4.6253677793468104E-10i
-0.026993987975951903     0                        0.0015                   3.2718138291384794E-5-1.3797403465576028E-10i     -2.624989050960334E-7+1.1226658155646433E-12i     -1.117890148525293E-4+4.700637070357566E-10i
-0.02687374749498998      0                        0.0015                   3.434779643302866E-5-1.4485127434241857E-10i      -1.3016688415097238E-7+5.670937944598031E-13i     -1.1358669430165875E-4+4.775906361368305E-10i
-0.026753507014028056     0                        0.0015                   3.597745457467288E-5-1.5172851402908285E-10i      2.165136794461328E-9+1.152177335470439E-14i       -1.1538437375078819E-4+4.851175652379003E-10i
-0.026633266533066132     0                        0.0015                   3.7607112716316635E-5-1.5860575371574497E-10i     1.3449715773991198E-7-5.440502477510664E-13i      -1.1718205319991796E-4+4.926444943389759E-10i
-0.02651302605210421      0                        0.0015                   4.1182401090758764E-5-1.7369526498672068E-10i     1.2119882326608366E-6-5.089772798663486E-12i      -1.1935381477641975E-4+5.017502438397347E-10i
-0.026392785571142285     0                        0.0015                   4.269234782133645E-5-1.8007069210100996E-10i      1.0816127037039877E-6-4.540976124078655E-12i      -1.2159205807393734E-4+5.111341146748294E-10i
-0.02627254509018036      0                        0.0015                   4.4202294551914565E-5-1.8644611921530028E-10i     9.512371747477622E-7-3.99217944949341E-12i        -1.2383030137145395E-4+5.20517985509922E-10i
-0.026152304609218437     0                        0.0015                   4.571224128249252E-5-1.9282154632958956E-10i      8.208616457911302E-7-3.4433827749073382E-12i      -1.2606854466897102E-4+5.299018563450149E-10i
-0.02603206412825651      0                        0.0015                   4.72221880130702E-5-1.9919697344387801E-10i       6.904861168347421E-7-2.8945861003227138E-12i      -1.2830678796648713E-4+5.39285727180106E-10i
-0.025911823647294586     0                        0.0015                   4.873213474364848E-5-2.0557240055816978E-10i      5.601105878781914E-7-2.345789425736642E-12i       -1.3054503126400482E-4+5.486695980152019E-10i
-0.025791583166332663     0                        0.0015                   5.024208147422611E-5-2.119478276724605E-10i       4.297350589216949E-7-1.7969927511528446E-12i      -1.3278327456152118E-4+5.580534688502925E-10i
-0.02567134268537074      0                        0.0015                   5.175202820480412E-5-2.1832325478674937E-10i      2.993595299652526E-7-1.2481960765675998E-12i      -1.350215178590386E-4+5.67437339685386E-10i
-0.025551102204408815     0                        0.0015                   5.326197493538186E-5-2.2469868190103948E-10i      1.6898400100848502E-7-6.993994019798734E-13i      -1.3725976115655628E-4+5.768212105204811E-10i
-0.02543086172344689      0                        0.0015                   5.385066313302746E-5-2.2717061162381084E-10i      8.310921867907186E-7-3.4754310382096984E-12i      -1.3805712969369184E-4+5.800635711323435E-10i
-0.025310621242484968     0                        0.0015                   5.5271381349051546E-5-2.331715617080505E-10i      7.679112486869014E-7-3.2090626627974675E-12i      -1.4301042796449284E-4+6.008981409069149E-10i
-0.025190380761523044     0                        0.0015                   5.6692099565074384E-5-2.391725117922865E-10i      7.047303105835992E-7-2.9426942873852496E-12i      -1.479637262352946E-4+6.21732710681493E-10i
-0.02507014028056112      0                        0.0015                   5.811281778109992E-5-2.451734618765352E-10i       6.415493724801343E-7-2.6763259119734485E-12i      -1.529170245060965E-4+6.425672804560723E-10i
-0.024949899799599197     0                        0.0015                   5.953353599712384E-5-2.511744119607757E-10i       5.783684343768186E-7-2.4099575365612273E-12i      -1.578703227768984E-4+6.634018502306492E-10i
-0.024829659318637273     0                        0.0015                   6.095425421314801E-5-2.571753620450162E-10i       5.151874962733944E-7-2.1435891611500433E-12i      -1.628236210476999E-4+6.842364200052264E-10i
-0.02470941883767535      0                        0.0015                   6.23749724291721E-5-2.6317631212925794E-10i       4.5200655817018707E-7-1.877220785738239E-12i      -1.67776919318502E-4+7.050709897798049E-10i
-0.024589178356713426     0                        0.0015                   6.379569064519691E-5-2.6917726221349964E-10i      3.888256200665867E-7-1.6108524103268466E-12i      -1.7273021758930365E-4+7.259055595543821E-10i
-0.024468937875751502     0                        0.0015                   6.52164088612207E-5-2.7517821229774056E-10i       3.256446819631083E-7-1.3444840349146254E-12i      -1.776835158601051E-4+7.4674012932896E-10i
-0.02434869739478958      0                        0.0015                   6.663712707724465E-5-2.8117916238198107E-10i      2.6246374385967736E-7-1.0781156595032323E-12i     -1.8263681413090735E-4+7.675746991035382E-10i
-0.024228456913827655     0                        0.0015                   6.805784529326909E-5-2.8718011246622153E-10i      1.9928280575634974E-7-8.117472840919433E-13i      -1.875901124017085E-4+7.884092688781125E-10i
-0.02410821643286573      0                        0.0015                   6.947856350929347E-5-2.931810625504645E-10i       1.361018676528256E-7-5.453789086787919E-13i       -1.9254341067250977E-4+8.092438386526877E-10i
-0.023987975951903807     0                        0.0015                   7.089928172531769E-5-2.991820126347058E-10i       7.292092954947597E-8-2.7901053326781516E-13i      -1.9749670894331163E-4+8.300784084272671E-10i
-0.023867735470941884     0                        0.0015                   8.213439397969098E-5-3.4665636671675624E-10i      -2.4096292798424376E-6+1.0202896736290154E-11i    -1.9801002196943732E-4+8.321131506329844E-10i
-0.02374749498997996      0                        0.0015                   8.467836476773677E-5-3.574045796101429E-10i       -2.9816955026011805E-6+1.2619091342331517E-11i    -2.029633837343219E-4+8.52944515231626E-10i
-0.023627254509018036     0                        0.0015                   8.978989657570175E-5-3.789998506057643E-10i       -6.807863192371264E-8+3.5046042096574397E-13i     -2.058104020533622E-4+8.648485671128787E-10i
-0.023507014028056113     0                        0.0015                   9.521842046804356E-5-4.0193531675832586E-10i      3.016680418882695E-8-6.108934663794512E-14i       -2.0876768918397915E-4+8.771974806340643E-10i
-0.02338677354709419      0                        0.0015                   1.0064694436038847E-4-4.24870782910869E-10i       1.2841224030152917E-7-4.726391142445294E-13i      -2.1172497631459302E-4+8.895463941552545E-10i
-0.023266533066132265     0                        0.0015                   1.0607546825273093E-4-4.4780624906343217E-10i     2.266576764137435E-7-8.841888818461505E-13i       -2.1468226344521118E-4+9.018953076764901E-10i
-0.02314629258517034      0                        0.0015                   1.1150399214507594E-4-4.707417152159759E-10i      3.249031125264999E-7-1.295738649449426E-12i       -2.1763955057582305E-4+9.142442211976753E-10i
-0.023026052104208418     0                        0.0015                   1.1693251603741846E-4-4.93677181368525E-10i       4.2314854863914793E-7-1.7072884170560102E-12i     -2.2059683770644E-4+9.265931347188713E-10i
-0.022905811623246494     0                        0.0015                   1.2236103992976281E-4-5.166126475210898E-10i      5.213939847515791E-7-2.118838184655977E-12i       -2.2355412483705296E-4+9.389420482400656E-10i
-0.02278557114228457      0                        0.0015                   1.2778956382210468E-4-5.395481136736331E-10i      6.196394208637934E-7-2.5303879522559438E-12i      -2.2651141196766993E-4+9.512909617612649E-10i
-0.022665330661322647     0                        0.0015                   1.3321808771444958E-4-5.624835798261987E-10i      7.178848569766583E-7-2.941937719862528E-12i       -2.2946869909828385E-4+9.636398752824592E-10i
-0.02254509018036072      0                        0.0015                   1.386549812440043E-4-5.854303136521733E-10i       1.4867664634894706E-6-6.2134280493094886E-12i     -2.3483572416968824E-4+9.863253243936539E-10i
-0.022424849699398796     0                        0.0015                   1.4634853925509823E-4-6.180180336972087E-10i      1.2187664428255345E-6-5.064882741847517E-12i      -2.4294554967586423E-4+1.0203249543675264E-9i
-0.022304609218436872     0                        0.0015                   1.540420972661918E-4-6.506057537422482E-10i       9.507664221603245E-7-3.91633743437562E-12i        -2.510553751820442E-4+1.0543245843414412E-9i
-0.02218436873747495      0                        0.0015                   1.6173565527728432E-4-6.831934737872766E-10i      6.827664014967408E-7-2.7677921269194386E-12i      -2.591652006882227E-4+1.0883242143153365E-9i
-0.022064128256513025     0                        0.0015                   1.6942921328837922E-4-7.157811938323198E-10i      4.147663808313953E-7-1.6192468194417508E-12i      -2.672750261943991E-4+1.1223238442892198E-9i
-0.0219438877755511       0                        0.0015                   1.771227712994726E-4-7.483689138773482E-10i       1.467663601668358E-7-4.707015119772979E-13i       -2.7538485170057654E-4+1.1563234742631093E-9i
-0.021823647294589178     0                        0.0015                   1.848163293105662E-4-7.809566339223873E-10i       -1.212336604970054E-7+6.77843795489223E-13i       -2.8349467720675483E-4+1.1903231042369997E-9i
-0.021703406813627254     0                        0.0015                   1.925098873216592E-4-8.13544353967419E-10i        -3.892336811610973E-7+1.8263891029499536E-12i     -2.9160450271293237E-4+1.224322734210888E-9i
-0.02158316633266533      0                        0.0015                   2.0020344533275343E-4-8.461320740124606E-10i      -6.572337018258702E-7+2.974934410418956E-12i      -2.99714328219108E-4+1.2583223641847733E-9i
-0.021462925851703406     0                        0.0015                   2.078970033438477E-4-8.787197940574873E-10i       -9.252337224895065E-7+4.1234797178801E-12i        -3.0782415372528706E-4+1.2923219941586707E-9i
-0.021342685370741483     0                        0.0015                   2.1559056135494103E-4-9.113075141025206E-10i      -1.1932337431549248E-6+5.272025025354066E-12i     -3.159339792314651E-4+1.3263216241325623E-9i
-0.02122244488977956      0                        0.0015                   2.2328411936603488E-4-9.438952341475738E-10i      -1.461233763820101E-6+6.420570332818932E-12i      -3.240438047376426E-4+1.3603212541064514E-9i
-0.021102204408817635     0                        0.0015                   2.508426868251171E-4-1.0599688419658462E-9i       -5.827167830745527E-6+2.4613700726818294E-11i     -3.265390442480621E-4+1.3706075201135667E-9i
-0.02098196392785571      0                        0.0015                   2.59501063056305E-4-1.09656211953356E-9i          -6.511125184909211E-6+2.74821459034193E-11i       -3.337652316570923E-4+1.400887909650992E-9i
-0.020861723446893785     0                        0.0015                   2.6815943928749334E-4-1.1331553971012787E-9i      -7.195082539067691E-6+3.0350591079993835E-11i     -3.4099141906611814E-4+1.4311682991883956E-9i
-0.02074148296593186      0                        0.0015                   2.7681781551868606E-4-1.1697486746690206E-9i      -7.879039893233597E-6+3.3219036256573333E-11i     -3.482176064751453E-4+1.461448688725806E-9i
-0.020621242484969937     0                        0.0015                   2.9663841895065265E-4-1.2545016284707418E-9i      -2.8015144367612857E-6+1.2233119275664676E-11i    -3.448046320124517E-4+1.4457395198249582E-9i
-0.020501002004008013     0                        0.0015                   3.100393246284705E-4-1.311078834805477E-9i        -3.073188903812327E-6+1.3375200907357864E-11i     -3.467044353700193E-4+1.4534501479579924E-9i
-0.02038076152304609      0                        0.0015                   3.30274728503863E-4-1.3970797378591002E-9i        2.9628381423883006E-6-1.1697286704208032E-11i     -3.7835058633015235E-4+1.5866809524841322E-9i
-0.020260521042084166     0                        0.0015                   3.522906803085971E-4-1.491045282130741E-9i        1.597012850589074E-5-6.766093733224802E-11i       -3.8012146662771626E-4+1.5947469393880602E-9i
-0.020140280561122242     0                        0.0015                   3.346889572112704E-4-1.4171110947947884E-9i       -6.209605696734272E-6+2.6200360973351413E-11i     -3.7763907146901607E-4+1.5852027542363798E-9i
-0.02002004008016032      0                        0.0015                   3.650794781728682E-4-1.5457695587246478E-9i       -5.292280027698894E-6+2.2387090456754685E-11i     -3.9469765677539357E-4+1.6560367526433179E-9i
-0.019899799599198395     0                        0.0015                   3.9546999913446957E-4-1.6744280226545138E-9i      -4.374954358662324E-6+1.8573819940150512E-11i     -4.1175624208177107E-4+1.726870751050256E-9i
-0.01977955911823647      0                        0.0015                   4.2586052009607636E-4-1.8030864865843881E-9i      -3.4576286896258624E-6+1.4760549423552956E-11i    -4.28814827388141E-4+1.7977047494571908E-9i
-0.019659318637274548     0                        0.0015                   4.562510410576813E-4-1.9317449505142418E-9i       -2.540303020589184E-6+1.094727890694961E-11i      -4.4587341269452315E-4+1.8685387478641537E-9i
-0.019539078156312624     0                        0.0015                   4.866415620192832E-4-2.060403414444113E-9i        -1.622977351552722E-6+7.134008390345438E-12i      -4.6293199800089935E-4+1.9393727462711034E-9i
-0.0194188376753507       0                        0.0015                   5.170320829808873E-4-2.1890618783739734E-9i       -7.056516825171277E-7+3.3207378737462283E-12i     -4.7999058330727446E-4+2.010206744678054E-9i
-0.019298597194388777     0                        0.0015                   5.474226039424881E-4-2.3177203423038345E-9i       2.11673986519334E-7-4.925326428529814E-13i        -4.970491686136526E-4+2.081040743085007E-9i
-0.019178356713426853     0                        0.0015                   5.77813124904092E-4-2.446378806233707E-9i         1.1289996555557957E-6-4.3058031594488824E-12i     -5.141077539200286E-4+2.151874741491955E-9i
-0.01905811623246493      0                        0.0015                   6.082036458656925E-4-2.5750372701635537E-9i       2.046325324593125E-6-8.11907367605471E-12i        -5.311663392264059E-4+2.222708739898907E-9i
-0.018937875751503006     0                        0.0015                   6.385941668272969E-4-2.703695734093425E-9i        2.963650993628719E-6-1.1932344192657228E-11i      -5.482249245327816E-4+2.2935427383058544E-9i
-0.018817635270541082     0                        0.0015                   6.689846877889018E-4-2.8323541980232846E-9i       3.880976662666916E-6-1.5745614709256438E-11i      -5.652835098391576E-4+2.3643767367128033E-9i
-0.018697394789579158     0                        0.0015                   6.993752087505045E-4-2.9610126619531535E-9i       4.798302331699041E-6-1.955888522584903E-11i       -5.823420951455388E-4+2.4352107351197613E-9i
-0.018577154308617234     0                        0.0015                   7.30184527165641E-4-3.098483102034761E-9i         -6.409649008635651E-6+2.7386070571213205E-11i     -5.985292633070129E-4+2.493441178009216E-9i
-0.01845691382765531      0                        0.0015                   7.772115041816367E-4-3.2960758541862597E-9i       -7.731041537057184E-6+3.285923023785776E-11i      -5.888088158161606E-4+2.4509829969695215E-9i
-0.018336673346693387     0                        0.0015                   8.242384811976306E-4-3.493668606337752E-9i        -9.052434065482187E-6+3.83323899044957E-11i       -5.790883683253112E-4+2.4085248159298523E-9i
-0.018216432865731463     0                        0.0015                   8.712654582136241E-4-3.6912613584892433E-9i       -1.0373826593901986E-5+4.380554957116011E-11i     -5.693679208344576E-4+2.3660666348901763E-9i
-0.01809619238476954      0                        0.0015                   9.427359633076577E-4-3.996165669709585E-9i        -4.007249578949143E-5+1.6988627488102886E-10i     -5.934732860673995E-4+2.4705035344450663E-9i
-0.017975951903807616     0                        0.0015                   0.0010202173586563862-4.322036144912265E-9i       -2.803079508988636E-5+1.1851660358889584E-10i     -6.137648745699123E-4+2.550293223749044E-9i
-0.017855711422845692     0                        0.0015                   0.0010976987540051112-4.647906620114971E-9i       -1.5989094390286493E-5+6.714693229669664E-11i     -6.340564630724129E-4+2.630082913052989E-9i
-0.01773547094188377      0                        0.0015                   0.0011751801493538388-4.97377709531769E-9i        -3.9473936906905295E-6+1.577726100456031E-11i     -6.54348051574907E-4+2.709872602356897E-9i
-0.017615230460921845     0                        0.0015                   0.0012526615447025617-5.299647570520376E-9i       8.094307008908036E-6-3.5592410287615725E-11i      -6.746396400774046E-4+2.7896622916608452E-9i
-0.01749498997995992      0                        0.0015                   0.0013301429400512878-5.625518045723062E-9i       2.0136007708513107E-5-8.696208157978183E-11i      -6.949312285799009E-4+2.869451980964757E-9i
-0.017374749498997998     0                        0.0015                   0.0014076243354000163-5.9513885209258005E-9i      3.217770840811471E-5-1.3833175287195456E-10i      -7.152228170823997E-4+2.9492416702686685E-9i
-0.017254509018036074     0                        0.0015                   0.0014851057307487395-6.277258996128471E-9i       4.42194091077007E-5-1.8970142416411405E-10i       -7.355144055849056E-4+3.0290313595726596E-9i
-0.01713426853707415      0                        0.0015                   0.0016303004623984475-6.883619633645428E-9i       -2.7623278448928035E-5+1.171737170590693E-10i     -7.54725120341377E-4+3.094814540855368E-9i
-0.017014028056112226     0                        0.0015                   0.0017331053983970985-7.3118762703328545E-9i      -4.342252845854905E-5+1.8324852719025774E-10i     -7.75679563931115E-4+3.1725452848386135E-9i
-0.016893787575150303     0                        0.0015                   0.001879285228403315-7.918781515793096E-9i        1.0344379802435834E-4-4.1422122194462914E-10i     -6.8988505671045E-4+2.780800297424945E-9i
-0.01677354709418838      0                        0.0015                   0.0019820566029524617-8.34193476262607E-9i        7.779236775147177E-5-3.0816568915224763E-10i      -6.119962494907632E-4+2.4555139268848997E-9i
-0.016653306613226452     0                        0.0015                   0.0020848279775015997-8.76508800945907E-9i        5.214093747857827E-5-2.0211015635983964E-10i      -5.341074422710763E-4+2.1302275563450134E-9i
-0.016533066132264528     0                        0.0015                   0.002279106841193236-9.573314690188336E-9i        1.3182471149279784E-5-5.1941352226902294E-11i     -5.056096207914605E-4+2.017214707533734E-9i
-0.016412825651302605     0                        0.0015                   0.002497635832881831-1.0452948366613691E-8i       1.2750560477049061E-5-4.645393397463377E-11i      -4.895795508318129E-4+1.931256581527262E-9i
-0.01629258517034068      0                        0.0015                   0.0027161648245704138-1.1332582043039417E-8i      1.2318649804813134E-5-4.096651572199467E-11i      -4.7354948087216715E-4+1.84529845552119E-9i
-0.016172344689378757     0                        0.0015                   0.002934693816258992-1.2212215719464501E-8i       1.1886739132579809E-5-3.5479097469501155E-11i     -4.575194109125158E-4+1.7593403295144233E-9i
-0.016052104208416833     0                        0.0015                   0.0031532228079475715-1.3091849395889439E-8i      1.1454828460344749E-5-2.9991679217669384E-11i     -4.4148934095285947E-4+1.6733822035081629E-9i
-0.01593186372745491      0                        0.0015                   0.0033717517996361586-1.3971483072315112E-8i      1.1022917788112725E-5-2.4504260964672942E-11i     -4.2545927099321007E-4+1.5874240775025906E-9i
-0.015811623246492986     0                        0.0015                   0.003590280791324743-1.4851116748740467E-8i       1.0591007115881568E-5-1.901684271213972E-11i      -4.094292010335607E-4+1.5014659514952184E-9i
-0.015691382765531062     0                        0.0015                   0.0039695457571680215-1.642951525958644E-8i       1.496846996857841E-5-5.763720370346168E-11i       -3.119393118452586E-4+1.3112641308897935E-9i
-0.015571142284569139     0                        0.0015                   0.004075468801183665-1.6893405984493475E-8i       1.4244831219822263E-5-5.5428770320464436E-11i     1.0192991607589643E-4-4.0240215889289147E-10i
-0.015450901803607215     0                        0.0015                   0.004181391845199309-1.7357296709399976E-8i       1.3521192471066376E-5-5.322033693652462E-11i      5.157991439970688E-4-2.1160684486773506E-9i
-0.015330661322645291     0                        0.0015                   0.004287314889214949-1.7821187434307264E-8i       1.2797553722310133E-5-5.1011903553299076E-11i     9.296683719182098E-4-3.829734738460344E-9i
-0.015210420841683366     0                        0.0015                   0.0043932379332305965-1.8285078159214215E-8i      1.2073914973554179E-5-4.880347016958384E-11i      0.0013435375998393756-5.5434010282436205E-9i
-0.015090180360721442     0                        0.0015                   0.004499160977246252-1.874896888412122E-8i        1.1350276224797794E-5-4.659503678620113E-11i      0.0017574068277605376-7.257067318027013E-9i
-0.014969939879759519     0                        0.0015                   0.004605084021261897-1.9212859609028143E-8i       1.0626637476042029E-5-4.438660340278037E-11i      0.0021712760556816934-8.970733607809823E-9i
-0.014849699398797595     0                        0.0015                   0.004654668288857804-1.943802091795397E-8i        -2.6447663964692986E-5+1.1554909401209848E-10i    0.0022692987871518384-9.386019203681404E-9i
-0.014729458917835671     0                        0.0015                   0.004612821608098617-1.92703578481977E-8i         -2.3602630973937008E-5+1.0059514198907459E-10i    0.0026907858007575868-1.1175637277280726E-8i
-0.014609218436873747     0                        0.0015                   0.004570974927339427-1.9102694778441553E-8i       -2.0757597983181084E-5+8.564118996600769E-11i     0.0031122728143634214-1.2965255350880456E-8i
-0.014488977955911824     0                        0.0015                   0.004529128246580224-1.893503170868534E-8i        -1.7912564992422436E-5+7.068723794293665E-11i     0.0035337598279691672-1.4754873424479814E-8i
-0.014368737474949898     0                        0.0015                   0.004487281565821038-1.876736863892915E-8i        -1.5067532001660129E-5+5.5733285919868915E-11i    0.003955246841574979-1.65444914980794E-8i
-0.014248496993987975     0                        0.0015                   0.004445434885061842-1.859970556917293E-8i        -1.2222499010903609E-5+4.077933389681028E-11i     0.004376733855180789-1.833410957167898E-8i
-0.014128256513026051     0                        0.0015                   0.004403588204302645-1.8432042499416736E-8i       -9.377466020143999E-6+2.5825381873749995E-11i     0.004798220868786589-2.012372764527859E-8i