% Model:              FEA.mph
% Version:            COMSOL 5.1.0.145
% Date:               Jun 19 2022, 21:01
% Dimension:          2
% Nodes:              500
% Expressions:        2
% Description:        Magnetic flux density, r component, Magnetic flux density, z component
% Length unit:        m
% r                       z                        mf.Br (T) @ freq=500                              mf.Bz (T) @ freq=500
0.006                     0.0025                   -0.007766482724808444+0.0024242387998085523i      5.957694551491782E-4-3.3514330729654193E-4i
0.00604809619238477       0.0025                   -0.007526702132933272+0.0023461024281031025i      3.8013375745136416E-4-2.6388937274630583E-4i
0.006096192384769539      0.0025                   -0.007286921541058082+0.002267966056397659i       1.649043035597741E-4-1.9276637568783677E-4i
0.006144288577154309      0.0025                   -0.007047140949182934+0.0021898296846922065i      -4.992844649754583E-5-1.2177124126809915E-4i
0.006192384769539079      0.0025                   -0.0067457580375707565+0.0020916836593498564i     -3.7126178978267796E-4-1.6178882839800986E-5i
0.0062404809619238475     0.0025                   -0.0064668644463588415+0.002000913228285342i      -3.735045483005449E-4-1.4414688060194027E-5i
0.006288577154308617      0.0025                   -0.0061879708551469265+0.001910142797220831i      -3.7375731592100524E-4-1.329731143503857E-5i
0.006336673346693387      0.0025                   -0.005909077263935025+0.0018193723661563237i      -3.720654055297352E-4-1.2812024657209934E-5i
0.0063847695390781565     0.0025                   -0.005630183672723117+0.0017286019350918093i      -3.68472764652422E-4-1.2944543210396996E-5i
0.006432865731462926      0.0025                   -0.005351290081511195+0.0016378315040273018i      -3.6302202649627583E-4-1.3681009778739213E-5i
0.006480961923847696      0.0025                   -0.005072396490299301+0.0015470610729627979i      -3.5575455871865707E-4-1.5007978395320531E-5i
0.006529058116232465      0.0025                   -0.0047935028990874+0.00145629064189828i          -3.4671051004047434E-4-1.6912399291110812E-5i
0.006577154308617234      0.0025                   -0.004908770784499153+0.001493753412655596i       -6.913125725673671E-4+9.626044769176618E-5i
0.006625250501002004      0.0025                   -0.0047439280206153026+0.001440117123110169i      -7.889824812707591E-4+1.2914249422057034E-4i
0.0066733466933867735     0.0025                   -0.004579085256731464+0.0013864808335647691i      -8.857195058011701E-4+1.6172201722174442E-4i
0.006721442885771543      0.0025                   -0.004414242492847623+0.0013328445440193484i      -9.81543672294618E-4+1.9400551093916524E-4i
0.006769539078156313      0.0025                   -0.004249399728963767+0.0012792082544739259i      -0.0010764744377608241+2.2599928505562597E-4i
0.006817635270541082      0.0025                   -0.0040845569650799565+0.0012255719649285138i     -0.0011705307101579718+2.577094712028537E-4i
0.006865731462925852      0.0025                   -0.0039749217182185916+0.001189971330086922i      -0.0010498673671504788+2.1938186738516352E-4i
0.006913827655310622      0.0025                   -0.003849238571077499+0.0011491388580846915i      -0.001076307534347459+2.2901962203532517E-4i
0.006961923847695391      0.0025                   -0.0037235554239364054+0.001108306386082455i      -0.0011015065144370194+2.3825393841906501E-4i
0.00701002004008016       0.0025                   -0.003597872276795283+0.001067473914080205i       -0.0011254898550096476+2.470931205830482E-4i
0.00705811623246493       0.0025                   -0.003472189129654156+0.0010266414420779628i      -0.001148282407299115+2.5554524622849726E-4i
0.0071062124248496995     0.0025                   -0.003346505982513053+9.85808970075724E-4i        -0.0011699083497477055+2.6361817437104253E-4i
0.007154308617234469      0.0025                   -0.0032208228353719504+9.44976498073475E-4i       -0.0011903912106211306+2.7131955269140036E-4i
0.007202404809619239      0.0025                   -0.003095139688230837+9.041440260712432E-4i       -0.0012097538897171923+2.786568245916896E-4i
0.007250501002004008      0.0025                   -0.002969456541089689+8.633115540689837E-4i       -0.0012280186792105966+2.856372359708282E-4i
0.007298597194388778      0.0025                   -0.0029461297274624015+8.559617030259002E-4i      -0.0011970542965172794+2.765171979089542E-4i
0.007346693386773547      0.0025                   -0.002824575485391112+8.164563947431445E-4i       -0.0011969638246167578+2.7751331826043955E-4i
0.007394789579158317      0.0025                   -0.0027030212433197948+7.769510864603715E-4i      -0.0011957405157657919+2.7814111499920133E-4i
0.007442885771543086      0.0025                   -0.0025814670012485053+7.374457781776297E-4i      -0.001193406331262257+2.78407728486043E-4i
0.007490981963927856      0.0025                   -0.00241711398291204+6.840143325612417E-4i        -0.0013054507468211992+3.1589183513790805E-4i
0.0075390781563126254     0.0025                   -0.002325657020041838+6.543334917945847E-4i       -0.001265796417880803+3.03918759497785E-4i
0.007587174348697395      0.0025                   -0.0022342000571716324+6.246526510279337E-4i      -0.0012248590491579937+2.915278573712393E-4i
0.007635270541082165      0.0025                   -0.0021738702669456527+6.053451547946721E-4i      -0.0012364553816616468+2.9658356796797235E-4i
0.0076833667334669335     0.0025                   -0.002111437050886218+5.85173233814427E-4i        -0.0012431542415692774+2.997125091902444E-4i
0.007731462925851704      0.0025                   -0.0020490038348267483+5.650013128341829E-4i      -0.0012489437086495264+3.025453071459137E-4i
0.007779559118236473      0.0025                   -0.0019865706187673204+5.448293918539341E-4i      -0.0012538406495390918+3.050874544457886E-4i
0.007827655310621243      0.0025                   -0.0019241374027078578+5.246574708736973E-4i      -0.0012578615163336268+3.073443087056472E-4i
0.007875751503006012      0.0025                   -0.0018617041866484233+5.044855498934485E-4i      -0.0012610223592455796+3.0932109666820706E-4i
0.007923847695390781      0.0025                   -0.0017992709705889958+4.843136289132137E-4i      -0.0012633388388008696+3.1102291817499935E-4i
0.007971943887775551      0.0025                   -0.001736837754529534+4.6414170793297044E-4i      -0.0012648262375941919+3.124547499944426E-4i
0.008020040080160322      0.0025                   -0.0016744045384700524+4.439697869527163E-4i      -0.0012654994716212718+3.136214495122367E-4i
0.00806813627254509       0.0025                   -0.0016119713224106314+4.2379786597247435E-4i     -0.0012653731012057974+3.145277582896494E-4i
0.00811623246492986       0.0025                   -0.001549538106351174+4.036259449922341E-4i       -0.0012644613415378463+3.1517830549539824E-4i
0.00816432865731463       0.0025                   -0.0014871048902917149+3.8345402401198953E-4i     -0.0012627780728398752+3.1557761121617646E-4i
0.008212424849699399      0.0025                   -0.0014246716742322939+3.6328210303174235E-4i     -0.0012603368501753515+3.157300896508468E-4i
0.00826052104208417       0.0025                   -0.001362238458172814+3.431101820514978E-4i       -0.0012571509129148555+3.156400521930286E-4i
0.008308617234468938      0.0025                   -0.0012998052421133964+3.229382610712532E-4i      -0.0012532331938733873+3.153117104067254E-4i
0.008356713426853707      0.0025                   -0.0012373720260539442+3.027663400910173E-4i      -0.0012485963281320452+3.1474917889903536E-4i
0.008404809619238477      0.0025                   -0.0011749388099944885+2.8259441911076925E-4i     -0.001243252661556922+3.1395647809436466E-4i
0.008452905811623246      0.0025                   -0.0011813701965895339+2.856007176370648E-4i      -0.0012452316621892365+3.156359212015665E-4i
0.008501002004008017      0.0025                   -0.001123746153754105+2.6705231269246073E-4i      -0.001240178722471208+3.1495379149004666E-4i
0.008549098196392785      0.0025                   -0.001022534161415612+2.3348521545714807E-4i      -0.0012217629614026558+3.0974550002242423E-4i
0.008597194388777554      0.0025                   -9.93003715501874E-4+2.2414558125627556E-4i       -0.0012194353361575758+3.098320358491002E-4i
0.008645290581162325      0.0025                   -9.634732695881741E-4+2.1480594705540782E-4i      -0.0012164902863598093+3.0971694497437027E-4i
0.008693386773547095      0.0025                   -9.339428236744109E-4+2.0546631285452122E-4i      -0.0012129380597197645+3.094035738994838E-4i
0.008741482965931864      0.0025                   -9.044123777606846E-4+1.9612667865363928E-4i      -0.0012087886784136158+3.088951954750694E-4i
0.008789579158316633      0.0025                   -8.748819318469654E-4+1.867870444527679E-4i       -0.0012040519452539648+3.0819501091616233E-4i
0.008837675350701403      0.0025                   -8.453514859332401E-4+1.7744741025189204E-4i      -0.0011987374496588415+3.073061517514994E-4i
0.008885771543086172      0.0025                   -8.158210400195064E-4+1.681077760510132E-4i       -0.001192854573426905+3.062316817094475E-4i
0.008933867735470943      0.0025                   -7.862905941057865E-4+1.5876814185014133E-4i      -0.0011864124963261928+3.049745985430779E-4i
0.008981963927855711      0.0025                   -7.567601481920641E-4+1.494285076492608E-4i       -0.001179420201503171+3.0353783579654904E-4i
0.00903006012024048       0.0025                   -7.272297022783338E-4+1.4008887344838395E-4i      -0.0011718864807190718+3.019242645150938E-4i
0.00907815631262525       0.0025                   -6.976992563645888E-4+1.3074923924750667E-4i      -0.001163819939419625+3.001366949005814E-4i
0.009126252505010021      0.0025                   -6.681688104508629E-4+1.2140960504662592E-4i      -0.0011552290016445988+2.981778779148074E-4i
0.00917434869739479       0.0025                   -6.386383645371422E-4+1.1206997084574864E-4i      -0.0011461219147828631+2.9605050683228064E-4i
0.009222444889779559      0.0025                   -6.09107918623418E-4+1.0273033664487483E-4i       -0.001136506754178672+2.937572187444808E-4i
0.00927054108216433       0.0025                   -5.795774727096886E-4+9.339070244399669E-5i       -0.0011263914275945405+2.913005960172424E-4i
0.009318637274549098      0.0025                   -5.500470267959558E-4+8.405106824311854E-5i       -0.0011157836795359843+2.886831677030616E-4i
0.009366733466933869      0.0025                   -5.205165808822333E-4+7.471143404224213E-5i       -0.0011046910954429045+2.859074109098059E-4i
0.009414829659318637      0.0025                   -4.909861349685109E-4+6.537179984136658E-5i       -0.0010931211057525997+2.8297575212758415E-4i
0.009462925851703406      0.0025                   -4.6212020147763655E-4+5.59891805839291E-5i       -0.0010807526977787345+2.792107878393257E-4i
0.009511022044088177      0.0025                   -4.4364205848974186E-4+5.031934850490208E-5i      -0.0010842219509932922+2.811307240720391E-4i
0.009559118236472947      0.0025                   -4.2516391550187493E-4+4.464951642588026E-5i      -0.0010873149792549647+2.8292754566442996E-4i
0.009607214428857716      0.0025                   -4.066857725139733E-4+3.897968434685324E-5i       -0.0010900374330011105+2.846031016474085E-4i
0.009655310621242485      0.0025                   -3.882076295260786E-4+3.3309852267827955E-5i      -0.001092394850082496+2.86159204209393E-4i
0.009703406813627255      0.0025                   -3.704172803537199E-4+2.766091337606108E-5i       -0.0010919004468168073+2.8707792361674965E-4i
0.009751503006012024      0.0025                   -3.558412985773876E-4+2.321325531797619E-5i       -0.0010840523795098023+2.852399260757329E-4i
0.009799599198396795      0.0025                   -3.412653168010406E-4+1.876559725988978E-5i       -0.0010758091810217883+2.832723403160079E-4i
0.009847695390781563      0.0025                   -3.266893350247018E-4+1.4317939201805973E-5i      -0.0010671766408205843+2.8117706506604497E-4i
0.009895791583166332      0.0025                   -3.1211335324836473E-4+9.870281143719184E-6i      -0.0010581604358206283+2.7895596214102495E-4i
0.009943887775551103      0.0025                   -2.9753737147200903E-4+5.4226230856312235E-6i     -0.0010487661331048512+2.7661085733549974E-4i
0.009991983967935873      0.0025                   -2.8296138969567306E-4+9.749650275475046E-7i      -0.001038999192568042+2.741435412903435E-4i
0.010040080160320642      0.0025                   -2.683854079193319E-4-3.472693030540097E-6i       -0.001028864969484298+2.715557703347471E-4i
0.01008817635270541       0.0025                   -2.538094261429905E-4-7.920351088624338E-6i       -0.0010183687170008846+2.688492673041498E-4i
0.01013627254509018       0.0025                   -2.3923344436664346E-4-1.236800914670988E-5i      -0.0010075155885612246+2.660257223348354E-4i
0.01018436873747495       0.0025                   -2.246574625903051E-4-1.6815667204794337E-5i      -9.963106402591363E-4+2.6308679363610003E-4i
0.01023246492985972       0.0025                   -2.1008148081396415E-4-2.126332526288183E-5i      -9.84758833126749E-4+2.600341082405522E-4i
0.01028056112224449       0.0025                   -1.95505499037631E-4-2.571098332096412E-5i        -9.728650353581871E-4+2.5686926273341343E-4i
0.010328657314629258      0.0025                   -1.842468225705697E-4-2.9185686120467014E-5i      -9.681142061062247E-4+2.5577716221333E-4i
0.010376753507014029      0.0025                   -1.749550326520452E-4-3.185045106213723E-5i       -9.671302853044798E-4+2.561191359974934E-4i
0.010424849699398797      0.0025                   -1.656632427335207E-4-3.451521600381091E-5i       -9.658710174618513E-4+2.563704972734489E-4i
0.010472945891783568      0.0025                   -1.5637145281499967E-4-3.717998094547939E-5i      -9.643401961081594E-4+2.56532494433969E-4i
0.010521042084168337      0.0025                   -1.4707966289647517E-4-3.9844745887153074E-5i     -9.625415454058612E-4+2.566063530440543E-4i
0.010569138276553106      0.0025                   -1.3778787297795067E-4-4.250951082882329E-5i      -9.604787217283104E-4+2.565932763603755E-4i
0.010617234468937876      0.0025                   -1.2849608305942617E-4-4.517427577049697E-5i      -9.581553151952172E-4+2.5649444583652125E-4i
0.010665330661322647      0.0025                   -1.192042931408982E-4-4.783904071216892E-5i       -9.555748511665266E-4+2.5631102161464286E-4i
0.010713426853707415      0.0025                   -1.1294071483387066E-4-4.9625839024596084E-5i     -9.466179883621958E-4+2.5424018905966645E-4i
0.010761523046092184      0.0025                   -1.0603866851127165E-4-5.155473500975086E-5i      -9.399894073405634E-4+2.526731802283714E-4i
0.010809619238476955      0.0025                   -9.913662218865964E-5-5.3483630994907586E-5i      -9.330986696397742E-4+2.51019659895451E-4i
0.010857715430861723      0.0025                   -9.223457586604719E-5-5.5412526980062144E-5i      -9.259492590694995E-4+2.492807777154017E-4i
0.010905811623246494      0.0025                   -8.5332529543451E-5-5.7341422965215456E-5i        -9.185445979830531E-4+2.474576630621655E-4i
0.010953907815631263      0.0025                   -7.843048322083725E-5-5.9270318950372264E-5i      -9.108880486265191E-4+2.4555142547436624E-4i
0.011002004008016032      0.0025                   -7.152843689823087E-5-6.119921493552799E-5i       -9.029829144526138E-4+2.4356315508883872E-4i
0.011050100200400802      0.0025                   -6.462639057562211E-5-6.312811092068125E-5i       -8.948324414002075E-4+2.4149392306291111E-4i
0.011098196392785573      0.0025                   -5.772434425301617E-5-6.505700690583602E-5i       -8.864398191405077E-4+2.3934478198561326E-4i
0.011146292585170341      0.0025                   -5.082229793040589E-5-6.698590289099275E-5i       -8.778081822910986E-4+2.3711676627832757E-4i
0.01119438877755511       0.0025                   -4.3920251607795606E-5-6.891479887614687E-5i      -8.689406115985692E-4+2.3481089258504994E-4i
0.011242484969939879      0.0025                   -3.701820528518966E-5-7.0843694861301E-5i         -8.598401350908514E-4+2.32428160152655E-4i
0.01129058116232465       0.0025                   -3.0116158962584585E-5-7.277259084645946E-5i      -8.505097292000885E-4+2.2996955120145916E-4i
0.01133867735470942       0.0025                   -2.831431075348001E-5-7.311613966447163E-5i       -8.514309856969288E-4+2.3066908838767638E-4i
0.011386773547094189      0.0025                   -2.3898273397118808E-5-7.418377040588429E-5i      -8.485963993982413E-4+2.3029786473007885E-4i
0.011434869739478958      0.0025                   -1.9482236040761075E-5-7.525140114729607E-5i      -8.455689928355274E-4+2.2986278745652436E-4i
0.011482965931863728      0.0025                   -1.5066198684392934E-5-7.631903188871046E-5i      -8.423511888812497E-4+2.29364658916128E-4i
0.011531062124248499      0.0025                   -1.0650161328028263E-5-7.738666263012658E-5i      -8.389453699844773E-4+2.2880426807154368E-4i
0.011579158316633267      0.0025                   -6.2341239716670604E-6-7.84542933715375E-5i       -8.353538790105744E-4+2.281823907770372E-4i
0.011627254509018036      0.0025                   -1.8180866153127972E-6-7.952192411294842E-5i      -8.315790200597597E-4+2.2749979004957132E-4i
0.011675350701402805      0.0025                   -2.5490857771129707E-6-7.904826743516946E-5i      -8.163108110559819E-4+2.2334467425892392E-4i
0.011723446893787575      0.0025                   5.618325896552569E-7-7.971690946616955E-5i        -8.12243081308921E-4+2.224969095156132E-4i
0.011771543086172346      0.0025                   3.6727509564234845E-6-8.03855514971718E-5i        -8.079995087478817E-4+2.2159061983317586E-4i
0.011819639278557115      0.0025                   6.783669323188243E-6-8.105419352817303E-5i        -8.035822399789236E-4+2.2062651965642967E-4i
0.011867735470941883      0.0025                   9.894587689954166E-6-8.172283555917407E-5i        -7.989933868100569E-4+2.1960531184853435E-4i
0.011915831663326654      0.0025                   1.3005506056723614E-5-8.239147759017684E-5i       -7.942350269534932E-4+2.1852768792470048E-4i
0.011963927855711423      0.0025                   1.611642442348295E-5-8.306011962117563E-5i        -7.893092047109882E-4+2.173943282802922E-4i
0.012012024048096193      0.0025                   1.9227342790252046E-5-8.372876165217962E-5i       -7.842179316427307E-4+2.1620590241345572E-4i
0.012060120240480962      0.0025                   2.2338261157015503E-5-8.439740368317863E-5i       -7.789631872202204E-4+2.1496306914240798E-4i
0.012108216432865731      0.0025                   2.5449179523779827E-5-8.506604571418197E-5i       -7.735469194635636E-4+2.1366647681754438E-4i
0.012156312625250501      0.0025                   2.856009789054849E-5-8.573468774518249E-5i        -7.67971045563676E-4+2.123167635285273E-4i
0.012204408817635272      0.0025                   3.1671016257318885E-5-8.640332977618648E-5i       -7.622374524897308E-4+2.1091455730645802E-4i
0.01225250501002004       0.0025                   3.4781934624087546E-5-8.7071971807187E-5i         -7.563479975823486E-4+2.0946047632130105E-4i
0.01230060120240481       0.0025                   3.789285299085274E-5-8.774061383818883E-5i        -7.503045091328344E-4+2.0795512907468427E-4i
0.01234869739478958       0.0025                   4.1003771357616195E-5-8.840925586918978E-5i       -7.441087869488787E-4+2.0639911458815278E-4i
0.012396793587174349      0.0025                   4.411468972437271E-5-8.907789790018987E-5i        -7.377626029071154E-4+2.047930225871014E-4i
0.01244488977955912       0.0025                   4.722560809115005E-5-8.974653993118996E-5i        -7.31267701492881E-4+2.0313743368040348E-4i
0.012492985971943888      0.0025                   3.884794859443548E-5-8.674221329887022E-5i        -7.197392050526255E-4+1.9987504953055546E-4i
0.012541082164328657      0.0025                   3.959432029795526E-5-8.670304488871301E-5i        -7.256025857573348E-4+2.0229872716439305E-4i
0.012589178356713427      0.0025                   4.604267628125023E-5-8.871728826770819E-5i        -7.198356096700798E-4+2.0075534171936412E-4i
0.012637274549098198      0.0025                   4.728270923828274E-5-8.879417497486457E-5i        -7.158185875755473E-4+1.9987673390315757E-4i
0.012685370741482967      0.0025                   4.8522742195315684E-5-8.887106168202214E-5i       -7.11672314234778E-4+1.9895493225482812E-4i
0.012733466933867735      0.0025                   4.976277515236359E-5-8.894794838917983E-5i        -7.073982542511149E-4+1.9799042622288987E-4i
0.012781563126252504      0.0025                   5.1002808109390355E-5-8.902483509633824E-5i       -7.029978501831007E-4+1.96983697888822E-4i
0.012829659318637275      0.0025                   5.224284106642509E-5-8.910172180349603E-5i        -6.984725229576417E-4+1.9593522210512672E-4i
0.012877755511022045      0.0025                   5.3482874023467845E-5-8.917860851065439E-5i       -6.938236722739663E-4+1.9484546663033997E-4i
0.012925851703406814      0.0025                   5.4722906980501224E-5-8.925549521780871E-5i       -6.890526769985989E-4+1.9371489226102016E-4i
0.012973947895791583      0.0025                   5.596293993753547E-5-8.933238192496617E-5i        -6.841608955514728E-4+1.9254395296077457E-4i
0.013022044088176353      0.0025                   5.720297289457232E-5-8.940926863212472E-5i        -6.791496662835033E-4+1.9133309598645258E-4i
0.013070140280561124      0.0025                   5.844300585160656E-5-8.948615533928197E-5i        -6.740203078458955E-4+1.900827620115521E-4i
0.013118236472945893      0.0025                   5.968303880864688E-5-8.956304204644008E-5i        -6.687741195512408E-4+1.8879338524689388E-4i
0.013166332665330661      0.0025                   6.092307176568026E-5-8.963992875359646E-5i        -6.634123817267322E-4+1.8746539355866883E-4i
0.01321442885771543       0.0025                   6.216310472271884E-5-8.971681546075545E-5i        -6.57936356059689E-4+1.8609920858389062E-4i
0.0132625250501002        0.0025                   6.340313767975309E-5-8.979370216791096E-5i        -6.523472859355316E-4+1.8469524584336213E-4i
0.013310621242484971      0.0025                   6.46431706367856E-5-8.987058887506994E-5i         -6.46646396768416E-4+1.8325391485215592E-4i
0.01335871743486974       0.0025                   6.588320359382678E-5-8.994747558222545E-5i        -6.408348963247939E-4+1.817756192277393E-4i
0.013406813627254509      0.0025                   6.50805146954446E-5-8.945063243218261E-5i         -6.405555143357243E-4+1.8179472808448863E-4i
0.01345490981963928       0.0025                   6.561488567924031E-5-8.928329944918757E-5i        -6.371371413636951E-4+1.8102368551364226E-4i
0.013503006012024048      0.0025                   6.61492566630395E-5-8.911596646619339E-5i         -6.336207131267756E-4+1.8021955997902183E-4i
0.013551102204408819      0.0025                   6.668362764683869E-5-8.894863348320094E-5i        -6.300072736916748E-4+1.793827037393408E-4i
0.013599198396793587      0.0025                   6.721799863063094E-5-8.87813005002059E-5i         -6.26297852354918E-4+1.7851346406997618E-4i
0.013647294589178356      0.0025                   6.775236961443012E-5-8.861396751721259E-5i        -6.224934639031529E-4+1.776121833508104E-4i
0.013695390781563127      0.0025                   6.72216020060042E-5-8.819831839017799E-5i         -6.168870785074768E-4+1.7628344168119764E-4i
0.013743486973947897      0.0025                   6.742950767926444E-5-8.797158074441767E-5i        -6.13222707532384E-4+1.7543449649263826E-4i
0.013791583166332666      0.0025                   6.763741335253683E-5-8.774484309865876E-5i        -6.094675257566879E-4+1.74554923654435E-4i
0.013839679358717435      0.0025                   6.784531902580162E-5-8.751810545290094E-5i        -6.056224799480712E-4+1.7364504248178062E-4i
0.013887775551102205      0.0025                   6.805322469906653E-5-8.729136780714073E-5i        -6.016885037588197E-4+1.7270516786646432E-4i
0.013935871743486974      0.0025                   6.826113037233615E-5-8.706463016138193E-5i        -5.976665179521545E-4+1.7173561035319275E-4i
0.013983967935871745      0.0025                   6.846903604560339E-5-8.683789251562405E-5i        -5.935574306238684E-4+1.707366762143392E-4i
0.014032064128256513      0.0025                   6.867694171886905E-5-8.661115486986466E-5i        -5.893621374194251E-4+1.6970866752317624E-4i
0.014080160320641284      0.0025                   6.888484739213602E-5-8.638441722410661E-5i        -5.850815217466166E-4+1.6865188222558606E-4i
0.014128256513026053      0.0025                   6.90927530654032E-5-8.615767957834749E-5i         -5.807164549838272E-4+1.6756661421031554E-4i
0.014176352705410821      0.0025                   6.930065873867082E-5-8.593094193258956E-5i        -5.762677966841566E-4+1.664531533777963E-4i
0.014224448897795592      0.0025                   6.950856441193583E-5-8.570420428682967E-5i        -5.717363947752643E-4+1.653117857075851E-4i
0.01427254509018036       0.0025                   6.971647008520172E-5-8.547746664107E-5i           -5.671230857553161E-4+1.64142793324403E-4i
0.014320641282565131      0.0025                   6.868407331011087E-5-8.490234556517932E-5i        -5.65064108618584E-4+1.6368557725407137E-4i
0.0143687374749499        0.0025                   6.867008154804073E-5-8.458610807490427E-5i        -5.618831245815611E-4+1.6293427975023344E-4i
0.01441683366733467       0.0025                   6.865608978596366E-5-8.426987058462749E-5i        -5.586278781593542E-4+1.621577238332337E-4i
0.01446492985971944       0.0025                   6.864209802389179E-5-8.395363309435331E-5i        -5.552991101238682E-4+1.613561614573216E-4i
0.014513026052104208      0.0025                   6.862810626181992E-5-8.363739560407913E-5i        -5.518975514273789E-4+1.6052984123684117E-4i
0.014561122244488979      0.0025                   6.861411449974979E-5-8.332115811380322E-5i        -5.484239233646038E-4+1.5967900850137503E-4i
0.014609218436873747      0.0025                   6.860012273767445E-5-8.300492062352817E-5i        -5.448789377317599E-4+1.5880390534983975E-4i
0.014657314629258518      0.0025                   6.858613097560431E-5-8.268868313325226E-5i        -5.412632969823669E-4+1.5790477070347836E-4i
0.014705410821643287      0.0025                   6.729403798029629E-5-8.204193369233366E-5i        -5.349338920745485E-4+1.5629971863757693E-4i
0.014753507014028057      0.0025                   6.713604309983336E-5-8.170857537611513E-5i        -5.321650415687647E-4+1.5566380638174963E-4i
0.014801603206412826      0.0025                   6.697804821937693E-5-8.137521705989898E-5i        -5.293308606964967E-4+1.5500558667820978E-4i
0.014849699398797595      0.0025                   6.68200533389166E-5-8.104185874368181E-5i         -5.264319842467231E-4+1.543252762794833E-4i
0.014897795591182365      0.0025                   6.666205845845904E-5-8.070850042746572E-5i        -5.234690388109977E-4+1.5362308913903532E-4i
0.014945891783567134      0.0025                   6.65040635779992E-5-8.03751421112487E-5i          -5.204426429153279E-4+1.5289923645630174E-4i
0.014993987975951905      0.0025                   6.634606869753605E-5-8.004178379502974E-5i        -5.17353407149551E-4+1.5215392672086617E-4i
0.015042084168336673      0.0025                   6.618807381707746E-5-7.970842547881413E-5i        -5.142019342942016E-4+1.5138736575577374E-4i
0.015090180360721444      0.0025                   6.60300789366141E-5-7.937506716259603E-5i         -5.109888194449378E-4+1.505997567600327E-4i
0.015138276553106213      0.0025                   6.587208405615767E-5-7.904170884637934E-5i        -5.077146501346796E-4+1.4979130035030054E-4i
0.015186372745490983      0.0025                   6.571408917569778E-5-7.870835053016157E-5i        -5.043800064533073E-4+1.4896219460176544E-4i
0.015234468937875752      0.0025                   6.555609429523789E-5-7.83749922139438E-5i         -5.009854611651965E-4+1.481126350882785E-4i
0.01528256513026052       0.0025                   6.539809941477973E-5-7.80416338977295E-5i         -4.975315798244615E-4+1.4724281492170483E-4i
0.015330661322645291      0.0025                   6.524010453431723E-5-7.770827558150999E-5i        -4.940189208880614E-4+1.463529247905399E-4i
0.01537875751503006       0.0025                   6.508210965385994E-5-7.737491726529308E-5i        -4.904480358267967E-4+1.4544315299781582E-4i
0.01542685370741483       0.0025                   6.492411477339137E-5-7.704155894907357E-5i        -4.868194692342042E-4+1.4451368549828013E-4i
0.0154749498997996        0.0025                   6.476611989294362E-5-7.6708200632861E-5i          -4.8313375893340935E-4+1.4356470593488503E-4i
0.01552304609218437       0.0025                   6.285725834168435E-5-7.588947036562578E-5i        -4.821761188440805E-4+1.4336328518010176E-4i
0.015571142284569139      0.0025                   6.125786358526959E-5-7.515660834488081E-5i        -4.7735663284234826E-4+1.4211848719568066E-4i
0.01561923847695391       0.0025                   6.0951070475277584E-5-7.480030946335086E-5i       -4.7479463005298305E-4+1.4152129966054028E-4i
0.01566733466933868       0.0025                   6.0644277365278203E-5-7.444401058181636E-5i       -4.7218146787344237E-4+1.4090654852868157E-4i