% Model:              FEA.mph
% Version:            COMSOL 6.0.0.318
% Date:               Jul 31 2022, 08:26
% Dimension:          2
% Nodes:              500
% Expressions:        4
% Description:        Magnetic flux density, r component, Magnetic flux density, z component
% Length unit:        m
% r                       z                        mf.Br (T) @ freq=500, Switch 1=Stainless Steel    mf.Bz (T) @ freq=500, Switch 1=Stainless Steel    mf.Br (T) @ freq=500, Switch 1=Air mf.Bz (T) @ freq=500, Switch 1=Air
0.006                     0.0025                   -0.0027229271684053196-3.1963828825697655E-5i     1.991408477377823E-4-4.508918369430182E-5i        -0.003287728187183511    -2.3281793238830715E-4
0.00604809619238477       0.0025                   -0.0026425712185949475-3.2033947260182474E-5i     1.0696298468204852E-4-4.471414597430831E-5i       -0.0032060681529919813   -3.1622654995732834E-4
0.006096192384769539      0.0025                   -0.0025622152687845676-3.2104065694667374E-5i     1.4808524749873597E-5-4.4338733695597585E-5i      -0.0031244081188004456   -3.996074396846532E-4
0.006144288577154309      0.0025                   -0.002461407104616959-3.215762407946127E-5i       -1.0634799678831868E-4-4.39977729938042E-5i       -0.003021746200357797    -5.138419243921027E-4
0.006192384769539079      0.0025                   -0.0023657786147119643-3.219491145611061E-5i      -1.1259706150950981E-4-4.36651509067368E-5i       -0.0029241176129968342   -5.131936357008185E-4
0.0062404809619238475     0.0025                   -0.0022701501248069775-3.223219883276003E-5i      -1.181651164807319E-4-4.333250510754998E-5i       -0.0028264890256358742   -5.118743334243633E-4
0.006288577154308617      0.0025                   -0.002174521634901987-3.2269486209409206E-5i      -1.230677871646938E-4-4.299983614030747E-5i       -0.002728860438274916    -5.098994136679619E-4
0.006336673346693387      0.0025                   -0.0020788931449969967-3.230677358605857E-5i      -1.273202246267614E-4-4.2667144532555415E-5i      -0.0026312318509139577   -5.072838051028718E-4
0.0063847695390781565     0.0025                   -0.001983264655091999-3.2344060962708E-5i         -1.3093712340302567E-4-4.233443079594348E-5i      -0.0025336032635529925   -5.040419865722315E-4
0.006432865731462926      0.0025                   -0.0018876361651870132-3.238134833935732E-5i      -1.3393273856680127E-4-4.2001695426820086E-5i     -0.002435974676192031    -5.001880039070391E-4
0.006480961923847696      0.0025                   -0.0017920076752820195-3.241863571600657E-5i      -1.3632090203525475E-4-4.1668938906799674E-5i     -0.0023383460888310656   -4.957354859934117E-4
0.006529058116232465      0.0025                   -0.0016963791853770293-3.2455923092655835E-5i     -1.3811503815525355E-4-4.133616170330513E-5i      -0.002240717501470108    -4.906976601296575E-4
0.006577154308617234      0.0025                   -0.0016007506954720321-3.2493210469305235E-5i     -1.3932817860536355E-4-4.100336427008743E-5i      -0.0021430889141091525   -4.8508736670956477E-4
0.006625250501002004      0.0025                   -0.001639271457800233-3.2449495986051425E-5i      -2.3175384350873282E-4-4.061502545611983E-5i      -0.0021788243926636787   -5.701585245687941E-4
0.0066733466933867735     0.0025                   -0.0015885831210093876-3.246338474372244E-5i      -2.722531718567832E-4-4.0243560054755916E-5i      -0.002125166492791748    -6.027670193948348E-4
0.006721442885771543      0.0025                   -0.0015378947842185423-3.24772735013934E-5i       -3.124802838034707E-4-3.9871810830045844E-5i      -0.002071508592919817    -6.35103695289387E-4
0.006769539078156313      0.0025                   -0.0014872064474276935-3.249116225906431E-5i      -3.5244098147458247E-4-3.9499783831510693E-5i     -0.0020178506930478846   -6.671743459064287E-4
0.006817635270541082      0.0025                   -0.0014365181106368446-3.250505101673549E-5i      -3.921409032674834E-4-3.912748493796169E-5i       -0.001964192793175952    -6.989846014105357E-4
0.006865731462925852      0.0025                   -0.0013858297738460063-3.251893977440629E-5i      -4.3158552958591544E-4-3.8754919863479226E-5i     -0.00191053489330403     -7.305399342034014E-4
0.006913827655310622      0.0025                   -0.0013569589843390635-3.248384755167975E-5i      -3.606012216230885E-4-3.856100039077522E-5i       -0.0018779100806426705   -6.555145758772548E-4
0.006961923847695391      0.0025                   -0.0013180637836021896-3.2465747138498986E-5i     -3.6835138674457934E-4-3.823203055101827E-5i      -0.0018355051206264007   -6.57300497855406E-4
0.00701002004008016       0.0025                   -0.0012791685828653157-3.24476467253183E-5i       -3.756653795329993E-4-3.790308521745944E-5i       -0.00179310016061013     -6.586631245249499E-4
0.00705811623246493       0.0025                   -0.0012402733821284435-3.2429546312137724E-5i     -3.825521166288797E-4-3.7574163889120594E-5i      -0.0017506952005938619   -6.596111092823057E-4
0.0071062124248496995     0.0025                   -0.0012013781813915696-3.241144589895696E-5i      -3.8902027327472936E-4-3.724526607858576E-5i      -0.0017082902405775886   -6.601528712526046E-4
0.007154308617234469      0.0025                   -0.0011624829806546957-3.239334548577627E-5i      -3.9507829142918665E-4-3.691639131154631E-5i      -0.001665885280561317    -6.602966031643272E-4
0.007202404809619239      0.0025                   -0.001123587779917815-3.237524507259567E-5i       -4.007343875561953E-4-3.658753912636308E-5i       -0.0016234803205450428   -6.600502789084466E-4
0.007250501002004008      0.0025                   -0.001051024118031365-3.243981040644374E-5i       -4.1750404422330077E-4-3.6229324983244005E-5i     -0.001549999540826273    -6.699097956050382E-4
0.007298597194388778      0.0025                   -0.0010133158580568112-3.243111885643961E-5i      -4.178893909600567E-4-3.590422870976988E-5i       -0.0015095365165837802   -6.641420566740224E-4
0.007346693386773547      0.0025                   -9.756075980822506E-4-3.242242730643562E-5i       -4.1786560191670757E-4-3.557918153322548E-5i      -0.0014690734923412923   -6.579747144689889E-4
0.007394789579158317      0.0025                   -9.378993381076915E-4-3.241373575643163E-5i       -4.174406602304424E-4-3.5254182495621654E-5i      -0.0014286104680988016   -6.514155661269964E-4
0.007442885771543086      0.0025                   -9.001910781331308E-4-3.240504420642766E-5i       -4.1662234268916216E-4-3.492923066373204E-5i      -0.0013881474438563058   -6.444722072435859E-4
0.007490981963927856      0.0025                   -8.624828181585821E-4-3.239635265642348E-5i       -4.1541822635590914E-4-3.460432512829699E-5i      -0.0013476844196138207   -6.371520383428462E-4
0.0075390781563126254     0.0025                   -8.24774558184018E-4-3.238766110641951E-5i        -4.1383569493958785E-4-3.4279465003260034E-5i     -0.001307221395371329    -6.294622710997397E-4
0.007587174348697395      0.0025                   -7.970978811301047E-4-3.235788715246347E-5i       -4.433820463778397E-4-3.388706941616769E-5i       -0.0012765000925188848   -6.528551243161232E-4
0.007635270541082165      0.0025                   -7.704055264474569E-4-3.23267245551454E-5i        -4.424859512112836E-4-3.358726088540439E-5i       -0.001246740669822971    -6.471044356830746E-4
0.0076833667334669335     0.0025                   -7.437131717648263E-4-3.229556195782709E-5i       -4.412376332072626E-4-3.328765790269484E-5i       -0.0012169812471270608   -6.410175173885831E-4
0.007731462925851704      0.0025                   -7.170208170821854E-4-3.2264399360508884E-5i      -4.39643665731301E-4-3.298825663199471E-5i        -0.0011872218244311497   -6.346006443252163E-4
0.007779559118236473      0.0025                   -6.903284623995549E-4-3.223323676319087E-5i       -4.37710459592802E-4-3.2689053332122415E-5i       -0.001157462401735242    -6.278599362105034E-4
0.007827655310621243      0.0025                   -6.636361077169122E-4-3.2202074165872636E-5i      -4.3544426803897806E-4-3.239004435384685E-5i      -0.00112770297903933     -6.20801362354129E-4
0.007875751503006012      0.0025                   -6.346004535973757E-4-3.214856912493695E-5i       -4.332085369691185E-4-3.207768806032511E-5i       -0.0010956188126133156   -6.136997566845722E-4
0.007923847695390781      0.0025                   -6.126195285128637E-4-3.209987661130566E-5i       -4.353814689046329E-4-3.1760874212152546E-5i      -0.0010698871451633582   -6.105989416532639E-4
0.007971943887775551      0.0025                   -5.906386034283447E-4-3.205118409767456E-5i       -4.372696493823616E-4-3.1444137034320434E-5i      -0.0010441554777133877   -6.072246398352442E-4
0.008020040080160322      0.0025                   -5.68657678343831E-4-3.2002491584043216E-5i       -4.3887820136704996E-4-3.112747514745247E-5i      -0.0010184238102634302   -6.035817715325132E-4
0.00806813627254509       0.0025                   -5.466767532593259E-4-3.195379907041182E-5i       -4.40212125666336E-4-3.08108872050634E-5i         -9.926921428134693E-4    -5.996751397224585E-4
0.00811623246492986       0.0025                   -5.246958281748086E-4-3.190510655678069E-5i       -4.4127630455017826E-4-3.0494371892584666E-5i     -9.669604753635066E-4    -5.955094335340888E-4
0.00816432865731463       0.0025                   -5.027149030902914E-4-3.185641404314946E-5i       -4.420755052424144E-4-3.0177927926424636E-5i      -9.412288079135387E-4    -5.910892316014751E-4
0.008212424849699399      0.0025                   -4.806041873696705E-4-3.1810446988436345E-5i      -4.168653921192457E-4-2.9995482487819016E-5i      -9.155043369442162E-4    -5.634137991854841E-4
0.00826052104208417       0.0025                   -4.6476206913011447E-4-3.173843500560905E-5i      -4.1914201117527333E-4-2.970590543921094E-5i      -8.956792185869887E-4    -5.618145047067354E-4
0.008308617234468938      0.0025                   -4.489199508905476E-4-3.166642302278175E-5i       -4.211813137906682E-4-2.941653602054918E-5i       -8.758541002297626E-4    -5.599951536515188E-4
0.008356713426853707      0.0025                   -4.3307783265098335E-4-3.159441103995462E-5i      -4.2298739751544774E-4-2.9127370646856432E-5i     -8.560289818725364E-4    -5.579595455578424E-4
0.008404809619238477      0.0025                   -4.17235714411426E-4-3.1522399057127296E-5i       -4.2456426610740705E-4-2.883840581521478E-5i      -8.362038635153137E-4    -5.557113929928875E-4
0.008452905811623246      0.0025                   -3.861258235960197E-4-3.153875537370695E-5i       -4.3348913966623746E-4-2.8502587373046305E-5i     -8.032253310405156E-4    -5.595131319754481E-4
0.008501002004008017      0.0025                   -3.724200428766194E-4-3.14779263556713E-5i        -4.300195530629287E-4-2.822094234884815E-5i       -7.862565717985355E-4    -5.518965166669016E-4
0.008549098196392785      0.0025                   -3.5871426215721564E-4-3.141709733763565E-5i      -4.2630585609192454E-4-2.7939530910113227E-5i     -7.692878125565559E-4    -5.440497736380228E-4
0.008597194388777554      0.0025                   -3.450084814378112E-4-3.1356268319599845E-5i      -4.2235214571044607E-4-2.76583491365264E-5i       -7.523190533145784E-4    -5.359767651722313E-4
0.008645290581162325      0.0025                   -3.3130270071841093E-4-3.129543930156403E-5i      -4.1816242770559406E-4-2.7377393195011322E-5i     -7.353502940725992E-4    -5.276812676050484E-4
0.008693386773547095      0.0025                   -3.175969199990079E-4-3.123461028352841E-5i       -4.137406192163424E-4-2.7096659337318015E-5i      -7.18381534830617E-4     -5.191669737016435E-4
0.008741482965931864      0.0025                   -3.0389113927960644E-4-3.117378126549263E-5i      -4.090905511722824E-4-2.6816143897688536E-5i      -7.014127755886408E-4    -5.104374949558726E-4
0.008789579158316633      0.0025                   -2.901853585602033E-4-3.1112952247456956E-5i      -4.0421597065230027E-4-2.6535843290600496E-5i     -6.844440163466608E-4    -5.014963638138661E-4
0.008837675350701403      0.0025                   -2.7647957784079826E-4-3.1052123229421256E-5i     -3.991205431661971E-4-2.6255754008584636E-5i      -6.674752571046785E-4    -4.923470358249205E-4
0.008885771543086172      0.0025                   -2.6750093231773294E-4-3.0967719449659045E-5i     -4.018096373768565E-4-2.597138515417131E-5i       -6.549530581238866E-4    -4.914071657369387E-4
0.008933867735470943      0.0025                   -2.578038627366625E-4-3.088954671805216E-5i       -4.0183797632151305E-4-2.5708795347006007E-5i     -6.418636938378644E-4    -4.883448454895576E-4
0.008981963927855711      0.0025                   -2.4810679315559253E-4-3.0811373986445396E-5i     -4.0168481676494726E-4-2.544649792501477E-5i      -6.287743295518445E-4    -4.8511802338295214E-4
0.00903006012024048       0.0025                   -2.384097235745247E-4-3.073320125483848E-5i       -4.013530588163702E-4-2.5184488216263567E-5i      -6.156849652658282E-4    -4.8172932794216894E-4
0.00907815631262525       0.0025                   -2.2871265399345862E-4-3.0655028523231585E-5i     -4.0084554112572413E-4-2.4922761647827E-5i        -6.025956009798074E-4    -4.781813319884161E-4
0.009126252505010021      0.0025                   -2.190155844123895E-4-3.0576855791624774E-5i      -4.0016504250315113E-4-2.4661313743178342E-5i     -5.895062366937868E-4    -4.7447655410687306E-4
0.00917434869739479       0.0025                   -2.0931851483132623E-4-3.0498683060017834E-5i     -3.993142834875593E-4-2.4400140119662872E-5i      -5.764168724077721E-4    -4.7061746006836166E-4
0.009222444889779559      0.0025                   -1.9962144525025862E-4-3.042051032841101E-5i      -3.982959278660658E-4-2.413923648605047E-5i       -5.633275081217522E-4    -4.666064642064986E-4
0.00927054108216433       0.0025                   -1.8992437566918386E-4-3.0342337596804257E-5i     -3.9711258414615097E-4-2.3878598640163497E-5i     -5.502381438357324E-4    -4.6244593075199427E-4
0.009318637274549098      0.0025                   -1.8022730608812396E-4-3.0264164865197212E-5i     -3.957668069822438E-4-2.3618222466579233E-5i      -5.371487795497142E-4    -4.5813817512564106E-4
0.009366733466933869      0.0025                   -1.7053023650705245E-4-3.018599213359035E-5i      -3.94261098558327E-4-2.335810393440216E-5i        -5.240594152636978E-4    -4.5368546519144255E-4
0.009414829659318637      0.0025                   -1.6241411885344184E-4-3.0051488383022203E-5i     -3.9031439221042517E-4-2.3175895740837573E-5i     -5.113231103498628E-4    -4.4848819753883884E-4
0.009462925851703406      0.0025                   -1.549820234372078E-4-2.9978376188770046E-5i      -3.8478451561928966E-4-2.2936041643272003E-5i     -5.010057466545155E-4    -4.399664691940732E-4
0.009511022044088177      0.0025                   -1.475499280209759E-4-2.9905263994517835E-5i      -3.790834613755273E-4-2.2696526799464668E-5i      -4.906883829591717E-4    -4.3128736465366407E-4
0.009559118236472947      0.0025                   -1.4011783260473205E-4-2.9832151800265915E-5i     -3.7321381329277325E-4-2.245734608860403E-5i      -4.803710192638217E-4    -4.2245325940736076E-4
0.009607214428857716      0.0025                   -1.3268573718849602E-4-2.9759039606013684E-5i     -3.6717810344369807E-4-2.221849449242334E-5i      -4.7005365556847516E-4   -4.1346648137563426E-4
0.009655310621242485      0.0025                   -1.2847276118508558E-4-2.962382039513047E-5i      -3.679288209304911E-4-2.1879055964209068E-5i      -4.61807805671144E-4     -4.0948488654835296E-4
0.009703406813627255      0.0025                   -1.2358188091328632E-4-2.9533992487177027E-5i     -3.6706877548498375E-4-2.1651203258795896E-5i     -4.5393202550139287E-4   -4.0644384043651236E-4
0.009751503006012024      0.0025                   -1.1869100064148598E-4-2.9444164579223898E-5i     -3.660763886248606E-4-2.1423723226697685E-5i      -4.460562453316374E-4    -4.0328702541054943E-4
0.009799599198396795      0.0025                   -1.1380012036968346E-4-2.9354336671270713E-5i     -3.6495360893536416E-4-2.119661038070022E-5i      -4.3818046516188474E-4   -4.0001614604342757E-4
0.009847695390781563      0.0025                   -1.0890924009787856E-4-2.926450876331759E-5i      -3.637023469341441E-4-2.0969859340787354E-5i      -4.3030468499212775E-4   -3.966328736075445E-4
0.009895791583166332      0.0025                   -1.0401835982607431E-4-2.9174680855364278E-5i     -3.6232447599633807E-4-2.074346483153615E-5i      -4.224289048223753E-4    -3.9313884688398255E-4
0.009943887775551103      0.0025                   -9.91274795542783E-5-2.9084852947411114E-5i       -3.608218332528261E-4-2.0517421679587532E-5i      -4.145531246526218E-4    -3.895356729482503E-4
0.009991983967935873      0.0025                   -9.423659928246972E-5-2.8995025039457855E-5i      -3.591962204625396E-4-2.0291724811189955E-5i      -4.066773444828676E-4    -3.8582492793337976E-4
0.010040080160320642      0.0025                   -8.934571901067024E-5-2.890519713150465E-5i       -3.574494048596804E-4-2.0066369249813272E-5i      -3.988015643131132E-4    -3.82008157771047E-4
0.01008817635270541       0.0025                   -8.445483873886555E-5-2.88153692235515E-5i        -3.555831199767305E-4-1.9841350113831483E-5i      -3.909257841433586E-4    -3.780868789115131E-4
0.01013627254509018       0.0025                   -7.956395846706607E-5-2.8725541315598242E-5i      -3.5359906644401014E-4-1.9616662614270883E-5i     -3.8305000397360857E-4   -3.7406257902306456E-4
0.01018436873747495       0.0025                   -7.467307819526399E-5-2.8635713407644943E-5i      -3.514989127665931E-4-1.939230205262268E-5i       -3.751742238038533E-4    -3.6993671767163747E-4
0.01023246492985972       0.0025                   -6.978219792345844E-5-2.8545885499691766E-5i      -3.492842960793085E-4-1.916826381871643E-5i       -3.672984436340963E-4    -3.6571072698126945E-4
0.01028056112224449       0.0025                   -6.48913176516607E-5-2.8456057591738615E-5i       -3.469568228805337E-4-1.8944543388654162E-5i      -3.5942266346434453E-4   -3.613860122760136E-4
0.010328657314629258      0.0025                   -6.000043737985905E-5-2.836622968378537E-5i       -3.44518069745523E-4-1.872113632280103E-5i        -3.5154688329459057E-4   -3.5696395270392944E-4
0.010376753507014029      0.0025                   -5.5109557108050464E-5-2.827640177583233E-5i      -3.419695840198517E-4-1.84980382638333E-5i        -3.436711031248323E-4    -3.524459018436952E-4
0.010424849699398797      0.0025                   -5.0046492985262626E-5-2.8107991771556E-5i        -3.397301864417671E-4-1.8397616634967087E-5i      -3.342338799740812E-4    -3.50435801850943E-4
0.010472945891783568      0.0025                   -4.652178188418402E-5-2.8024633571319E-5i         -3.354990486571632E-4-1.8194850163898847E-5i      -3.281953912694486E-4    -3.441622370025073E-4
0.010521042084168337      0.0025                   -4.299707078310932E-5-2.794127537108189E-5i       -3.31155962064128E-4-1.799246199528558E-5i        -3.221569025648207E-4    -3.3778931461495346E-4
0.010569138276553106      0.0025                   -3.973153695703861E-5-2.7779648096286618E-5i      -3.2773771735056505E-4-1.766694218121695E-5i      -3.150746118908798E-4    -3.3033515904064026E-4
0.010617234468937876      0.0025                   -3.753404781043734E-5-2.768302391261512E-5i       -3.2653931318442526E-4-1.747464621594947E-5i      -3.1034161723262135E-4   -3.277168939413319E-4
0.010665330661322647      0.0025                   -3.5336558663829135E-5-2.758639972894368E-5i      -3.2524846687685053E-4-1.72827627300261E-5i       -3.056086225743577E-4    -3.250210158185775E-4
0.010713426853707415      0.0025                   -3.313906951722505E-5-2.748977554527227E-5i       -3.2386642343985004E-4-1.709128616816935E-5i      -3.008756279160975E-4    -3.2224856996563455E-4
0.010761523046092184      0.0025                   -3.094158037062161E-5-2.7393151361600662E-5i      -3.223944056282317E-4-1.6900211074414133E-5i      -2.961426332578361E-4    -3.1940058298893345E-4
0.010809619238476955      0.0025                   -2.8744091224013404E-5-2.7296527177929332E-5i     -3.2083361443475185E-4-1.6709532089898254E-5i     -2.914096385995742E-4    -3.16478063223832E-4
0.010857715430861723      0.0025                   -2.6546602077413438E-5-2.7199902994257888E-5i     -3.1918522957213825E-4-1.6519243950711346E-5i     -2.866766439413162E-4    -3.1348200113928215E-4
0.010905811623246494      0.0025                   -2.4349112930805014E-5-2.710327881058641E-5i      -3.1745040994229413E-4-1.6329341485801658E-5i     -2.819436492830533E-4    -3.1041336973179075E-4
0.010953907815631263      0.0025                   -2.2151623784199843E-5-2.7006654626914855E-5i     -3.1563029409319425E-4-1.6139819614937327E-5i     -2.7721065462479183E-4   -3.072731249090151E-4
0.011002004008016032      0.0025                   -1.995413463759619E-5-2.6910030443243424E-5i      -3.137260006637778E-4-1.5950673346721044E-5i      -2.724776599665312E-4    -3.040622058632837E-4
0.011050100200400802      0.0025                   -1.7756645490991235E-5-2.6813406259571925E-5i     -3.1173862881723146E-4-1.57618977766567E-5i       -2.677446653082693E-4    -3.0078153543537797E-4
0.011098196392785573      0.0025                   -1.5559156344388883E-5-2.6716782075900412E-5i     -3.0966925866298366E-4-1.557348808526692E-5i      -2.6301167065000955E-4   -2.974320204688363E-4
0.011146292585170341      0.0025                   -1.336166719778046E-5-2.6620157892229143E-5i      -3.075189516677986E-4-1.538543953625801E-5i       -2.582786759917472E-4    -2.9401455215509833E-4
0.01119438877755511       0.0025                   -1.116417805117724E-5-2.652353370855763E-5i       -3.0528875105627226E-4-1.5197747474733609E-5i     -2.5354568133348614E-4   -2.9053000636974327E-4
0.011242484969939879      0.0025                   -8.96668890457402E-6-2.6426909524886145E-5i       -3.029796822010139E-4-1.501040732545321E-5i       -2.488126866752251E-4    -2.869792440001083E-4
0.01129058116232465       0.0025                   -6.769199757965597E-6-2.6330285341214714E-5i      -3.005927530029036E-4-1.4823414591135911E-5i      -2.4407969201696317E-4   -2.833631112645222E-4
0.01133867735470942       0.0025                   -4.571710611360642E-6-2.6233661157543282E-5i      -2.981289542616366E-4-1.4636764850806401E-5i      -2.393466973587017E-4    -2.7968244002342363E-4
0.011386773547094189      0.0025                   -2.374221464757423E-6-2.6137036973871797E-5i      -2.95589260036897E-4-1.4450453758183956E-5i       -2.3461370270044107E-4   -2.7593804808258374E-4
0.011434869739478958      0.0025                   1.2285705211917408E-6-2.5965941801168377E-5i      -2.9530161661819095E-4-1.4385139270459144E-5i     -2.2737795302336635E-4   -2.762466192204268E-4
0.011482965931863728      0.0025                   2.7335396700525587E-6-2.5876847547562468E-5i      -2.9229966415563884E-4-1.4214639647526633E-5i     -2.2373548164728182E-4   -2.718960423297731E-4
0.011531062124248499      0.0025                   5.2811867666735166E-6-2.5717241480957963E-5i      -2.876384382789343E-4-1.3929493815302572E-5i      -2.1805112611272934E-4   -2.6427530108320656E-4
0.011579158316633267      0.0025                   6.138583656964056E-6-2.561855166707316E-5i        -2.864095629588297E-4-1.3769727450179389E-5i      -2.1508949185324814E-4   -2.6218454142065527E-4
0.011627254509018036      0.0025                   6.995980547255245E-6-2.551986185318822E-5i        -2.8511601692001625E-4-1.3610381052439148E-5i     -2.121278575937638E-4    -2.600417681895989E-4
0.011675350701402805      0.0025                   7.85337743754882E-6-2.5421172039303464E-5i        -2.837585993886672E-4-1.3451449431959592E-5i      -2.0916622333427923E-4   -2.5784762419417623E-4
0.011723446893787575      0.0025                   8.7107743278444E-6-2.5322482225418796E-5i         -2.8233809647545797E-4-1.3292927483790454E-5i     -2.062045890747945E-4    -2.5560274168994553E-4
0.011771543086172346      0.0025                   9.568171218137921E-6-2.522379241153406E-5i        -2.8085528144350353E-4-1.31348101864115E-5i       -2.0324295481531082E-4   -2.533077425993887E-4
0.011819639278557115      0.0025                   1.0425568108429978E-5-2.5125102597649364E-5i      -2.793109149697296E-4-1.2977092600037235E-5i      -2.0028132055582702E-4   -2.5096323872213547E-4
0.011867735470941883      0.0025                   1.128296499872312E-5-2.502641278376448E-5i        -2.7770574539993627E-4-1.2819769864959323E-5i     -1.9731968629634533E-4   -2.4856983194008716E-4
0.011915831663326654      0.0025                   1.214036188901626E-5-2.4927722969879683E-5i       -2.760405089976474E-4-1.26628371999309E-5i        -1.9435805203685827E-4   -2.461281144175832E-4
0.011963927855711423      0.0025                   1.2997758779310052E-5-2.4829033155994987E-5i      -2.743159301869754E-4-1.2506289900589613E-5i      -1.9139641777737447E-4   -2.4363866879672E-4
0.012012024048096193      0.0025                   1.3855155669601892E-5-2.4730343342110143E-5i      -2.7253272178964067E-4-1.2350123337918152E-5i     -1.8843478351789262E-4   -2.4110206838798737E-4
0.012060120240480962      0.0025                   1.4712552559895467E-5-2.4631653528225326E-5i      -2.7069158525633134E-4-1.2194332956742061E-5i     -1.8547314925840904E-4   -2.3851887735634443E-4
0.012108216432865731      0.0025                   1.5569949450189476E-5-2.453296371434055E-5i       -2.6879321089254044E-4-1.2038914274263006E-5i     -1.8251151499892307E-4   -2.358896509028599E-4
0.012156312625250501      0.0025                   1.642734634048175E-5-2.4434273900455827E-5i       -2.6683827807904507E-4-1.188386287862691E-5i      -1.7954988073943991E-4   -2.3321493544203496E-4
0.012204408817635272      0.0025                   1.728474323077489E-5-2.4335584086571105E-5i       -2.6482745548717275E-4-1.1729174427526451E-5i     -1.7658824647995416E-4   -2.3049526877494115E-4
0.01225250501002004       0.0025                   1.81421401210689E-5-2.4236894272686274E-5i        -2.6276140128899745E-4-1.157484464683521E-5i      -1.7362661222047188E-4   -2.277311802582801E-4
0.01230060120240481       0.0025                   1.8999537011362908E-5-2.413820445880166E-5i       -2.6064076336258866E-4-1.14208693292762E-5i       -1.7066497796098526E-4   -2.24923190969461E-4
0.01234869739478958       0.0025                   1.985693390165605E-5-2.4039514644916694E-5i       -2.584661794925127E-4-1.1267244333118298E-5i      -1.6770334370150297E-4   -2.2207181386785203E-4
0.012396793587174349      0.0025                   2.0714330791944853E-5-2.3940824831032E-5i         -2.562382775655998E-4-1.1113965580905763E-5i      -1.6474170944201939E-4   -2.191775539522381E-4
0.01244488977955912       0.0025                   2.2870961948267925E-5-2.3782708772626924E-5i      -2.5627099310675553E-4-1.1064204082963986E-5i     -1.598556604300778E-4    -2.1966709132015312E-4
0.012492985971943888      0.0025                   2.3412544283114237E-5-2.36921453533382E-5i        -2.540876177874875E-4-1.0921788254163357E-5i      -1.5753307588261666E-4   -2.166371728187369E-4
0.012541082164328657      0.0025                   2.4972181759193475E-5-2.3539861888843166E-5i      -2.504541828348268E-4-1.068839409038669E-5i       -1.5355281714151542E-4   -2.1123408432808033E-4
0.012589178356713427      0.0025                   2.5189443148074557E-5-2.3442948661289088E-5i      -2.492775382579131E-4-1.0557407772186274E-5i      -1.516196646363199E-4    -2.0958581473371296E-4
0.012637274549098198      0.0025                   2.5406704536955205E-5-2.3346035433735037E-5i      -2.480552840855128E-4-1.0426826168928373E-5i      -1.4968651213112776E-4   -2.0790237782019182E-4
0.012685370741482967      0.0025                   2.562396592583607E-5-2.324912220618092E-5i        -2.467879390997535E-4-1.0296644677220716E-5i      -1.477533596259328E-4    -2.061841735949367E-4
0.012733466933867735      0.0025                   2.5841227314717693E-5-2.3152208978626797E-5i      -2.4547601424469804E-4-1.0166858763221135E-5i     -1.4582020712074076E-4   -2.0443159602182045E-4
0.012781563126252504      0.0025                   2.6058488703597582E-5-2.3055295751072614E-5i      -2.4412001277381094E-4-1.003746396132983E-5i      -1.4388705461554702E-4   -2.026450331348727E-4
0.012829659318637275      0.0025                   2.6275750092482242E-5-2.2958382523518492E-5i      -2.4272043039410694E-4-9.908455872910407E-6i      -1.4195390211035137E-4   -2.0082486714943375E-4
0.012877755511022045      0.0025                   2.6493011481362348E-5-2.286146929596435E-5i       -2.4127775540708988E-4-9.779830165038532E-6i      -1.400207496051588E-4    -1.9897147457080745E-4
0.012925851703406814      0.0025                   2.6710272870241912E-5-2.2764556068410205E-5i      -2.397924688465142E-4-9.651582569280527E-6i       -1.3808759709996524E-4   -1.970852263004981E-4
0.012973947895791583      0.0025                   2.6927534259123644E-5-2.26676428408561E-5i        -2.3826504461310828E-4-9.523708880496676E-6i      -1.3615444459477125E-4   -1.9516648774008444E-4
0.013022044088176353      0.0025                   2.714479564800169E-5-2.2570729613301995E-5i       -2.366959496062878E-4-9.396204955673728E-6i       -1.34221292089579E-4     -1.9321561889277684E-4
0.013070140280561124      0.0025                   2.7362057036883856E-5-2.2473816385747863E-5i      -2.3508564385299642E-4-9.269066712780496E-6i      -1.3228813958438435E-4   -1.912329744627589E-4