% Model:              FEA.mph
% Version:            COMSOL 6.0.0.318
% Date:               Jul 31 2022, 08:26
% Dimension:          2
% Nodes:              10000
% Expressions:        1
% Description:        Current density, phi component
% Length unit:        m
% r                       z                        mf.Jphi (A/m^2) @ freq=500, Switch 1=Stainless Steel
0                         -0.006                   0.0018618789975914643-0.0339708740407072i
3.0303030303030303E-4     -0.006                   -23.312917872663117-8.7894285094056i
6.060606060606061E-4      -0.006                   -46.447734933190176-17.512023913349356i
9.090909090909091E-4      -0.006                   -69.40258930258516-26.201757085872263i
0.0012121212121212121     -0.006                   -92.13001945338729-34.81370044440336i
0.0015151515151515152     -0.006                   -114.39681209144649-43.30557273688947i
0.0018181818181818182     -0.006                   -136.17736654780478-51.68463673162625i
0.002121212121212121      -0.006                   -157.4584644739436-59.91971791981195i
0.0024242424242424242     -0.006                   -178.0544676581304-67.95761419944212i
0.0027272727272727275     -0.006                   -197.90847689279636-75.8289666847464i
0.0030303030303030303     -0.006                   -217.0202208580166-83.52493867879238i
0.003333333333333333      -0.006                   -235.28696792462898-90.9568232496406i
0.0036363636363636364     -0.006                   -252.6288827331449-98.1894124689418i
0.00393939393939394       -0.006                   -269.0459652835623-105.22270633669567i
0.004242424242424242      -0.006                   -284.50805156791904-111.97642893384128i
0.004545454545454545      -0.006                   -298.956161294008-118.51272820623778i
0.0048484848484848485     -0.006                   -312.3887684307042-124.85188880104869i
0.005151515151515152      -0.006                   -324.8018255277629-130.94265591503637i
0.005454545454545455      -0.006                   -336.19448797462064-136.80979207647218i
0.005757575757575757      -0.006                   -346.5705216846484-142.5128062646811i
0.006060606060606061      -0.006                   -355.9299008655836-148.0298316868274i
0.006363636363636364      -0.006                   -364.31666437830626-153.3284238979999i
0.006666666666666666      -0.006                   -371.76032621693736-158.5181540252675i
0.0069696969696969695     -0.006                   -378.26088638148224-163.5990220686313i
0.007272727272727273      -0.006                   -383.86711146363217-168.49725880757555i
0.007575757575757576      -0.006                   -388.65547151343185-173.34012663013237i
0.00787878787878788       -0.006                   -392.62685423815464-178.13906894518004i
0.008181818181818182      -0.006                   -395.80996238855045-182.84335139744113i
0.008484848484848484      -0.006                   -398.31721377433166-187.5201727231861i
0.008787878787878787      -0.006                   -400.1599695766391-192.21592764705977i
0.00909090909090909       -0.006                   -401.3468975890351-196.9045866209089i
0.009393939393939394      -0.006                   -401.9907260289462-201.58552125575147i
0.009696969696969697      -0.006                   -402.1257068228186-206.33781668137186i
0.01                      -0.006                   -401.75183997066273-211.16147289776978i
0.010303030303030303      -0.006                   -400.94751330954466-215.98952381896763i
0.010606060606060607      -0.006                   -399.776660312892-220.92725708573795i
0.01090909090909091       -0.006                   -398.2392809806985-225.9746726980817i
0.011212121212121211      -0.006                   -396.3698360582185-231.08310676220202i
0.011515151515151515      -0.006                   -394.2506239930713-236.30142953808505i
0.011818181818181818      -0.006                   -391.88487418304015-241.65421386033393i
0.012121212121212121      -0.006                   -389.28258583100626-247.11425240523957i
0.012424242424242424      -0.006                   -386.51517642747444-252.6779571744148i
0.012727272727272728      -0.006                   -383.5961119777209-258.39043158062384i
0.013030303030303031      -0.006                   -380.5261613919651-264.2452994298263i
0.013333333333333332      -0.006                   -377.3506025203289-270.1957978282691i
0.013636363636363636      -0.006                   -374.09452781778236-276.30278706113944i
0.013939393939393939      -0.006                   -370.75793728431387-282.5662671284382i
0.014242424242424242      -0.006                   -367.35874511526947-288.9413806707504i
0.014545454545454545      -0.006                   -363.9293292418408-295.46604983799955i
0.014848484848484849      -0.006                   -360.47030151271446-302.1519644289686i
0.015151515151515152      -0.006                   -356.986030294807-308.9735227268594i
0.015454545454545455      -0.006                   -353.50265825390255-315.93424291305985i
0.01575757575757576       -0.006                   -350.024531245023-323.06089943149584i
0.01606060606060606       -0.006                   -346.5517561623953-330.34415256730404i
0.016363636363636365      -0.006                   -343.0983281247658-337.760065004252i
0.016666666666666666      -0.006                   -339.6729358459252-345.34871682070144i
0.016969696969696968      -0.006                   -336.27557932587746-353.11010801665185i
0.017272727272727273      -0.006                   -332.909054021436-361.00983009781544i
0.017575757575757574      -0.006                   -329.5842434805607-369.0885332225826i
0.01787878787878788       -0.006                   -326.30154069686097-377.350570284887i
0.01818181818181818       -0.006                   -323.05971237687294-385.7752428509957i
0.018484848484848486      -0.006                   -319.8655137910012-394.3821526363725i
0.018787878787878787      -0.006                   -316.7213531780296-403.18827415622803i
0.019090909090909092      -0.006                   -313.6257729107769-412.1837802843174i
0.019393939393939394      -0.006                   -310.57916991641235-421.3703826050566i
0.019696969696969695      -0.006                   -307.5862055566178-430.7789880747494i
0.02                      -0.006                   -304.6468798313917-440.4095966933966i
0.020303030303030302      -0.006                   -301.7552343123127-450.2443703235043i
0.020606060606060607      -0.006                   -298.91759116354217-460.3329712614344i
0.02090909090909091       -0.006                   -296.1339503850811-470.6753995071869i
0.021212121212121213      -0.006                   -293.39904591792265-481.26000234651286i
0.021515151515151515      -0.006                   -290.71378482820273-492.1307382194605i
0.02181818181818182       -0.006                   -288.08005303767857-503.2991834545773i
0.02212121212121212       -0.006                   -285.4946306865771-514.7577689140671i
0.022424242424242423      -0.006                   -282.95198486170693-526.5450425984816i
0.022727272727272728      -0.006                   -280.4552640741726-538.690500744276i
0.02303030303030303       -0.006                   -278.0037243630992-551.1914604787856i
0.023333333333333334      -0.006                   -275.5860818308312-564.0727695790086i
0.023636363636363636      -0.006                   -273.2046694073708-577.3964645194158i
0.02393939393939394       -0.006                   -270.8594870927206-591.162545300006i
0.024242424242424242      -0.006                   -268.540203791939-605.3831756068784i
0.024545454545454544      -0.006                   -266.2408613276157-620.1571023624738i
0.02484848484848485       -0.006                   -263.9625195291919-635.4932701660489i
0.02515151515151515       -0.006                   -261.69909609276505-651.3953258625866i
0.025454545454545455      -0.006                   -259.43432589250483-667.9970465731584i
0.025757575757575757      -0.006                   -257.16886952371055-685.3393778264683i
0.026060606060606062      -0.006                   -254.9006127961253-703.4176906809154i
0.026363636363636363      -0.006                   -252.6080203336448-722.3922331223631i
0.026666666666666665      -0.006                   -250.2894203604028-742.3976107909937i
0.02696969696969697       -0.006                   -247.94481287639925-763.4338236868072i
0.02727272727272727       -0.006                   -245.55585670879165-785.6327894773663i
0.027575757575757576      -0.006                   -243.1271795447466-809.405012385907i
0.027878787878787878      -0.006                   -240.66020478827386-834.7636119660312i
0.028181818181818183      -0.006                   -238.14233360503854-861.7769055491066i
0.028484848484848484      -0.006                   -235.6322161979307-891.5239686222272i
0.02878787878787879       -0.006                   -233.1518644377017-924.2347182805355i
0.02909090909090909       -0.006                   -230.60192022571775-958.9674419361662i
0.029393939393939392      -0.006                   -228.75644746675783-1004.5474460599743i
0.029696969696969697      -0.006                   -228.3354193848693-1068.6002494684624i
0.03                      -0.006                   2.208276282310774E-11-4.399549459831369E-12i
0                         -0.00593939393939394     0.08687020438864655+0.5681318005881894i
3.0303030303030303E-4     -0.00593939393939394     -38.57846569616826-11.344212044940447i
6.060606060606061E-4      -0.00593939393939394     -76.82450729763416-23.249197136659323i
9.090909090909091E-4      -0.00593939393939394     -114.89058620796567-35.12131999695692i
0.0012121212121212121     -0.00593939393939394     -152.16523222818842-45.51468758256259i
0.0015151515151515152     -0.00593939393939394     -188.4838086615333-56.89294768138002i
0.0018181818181818182     -0.00593939393939394     -224.31614691317725-68.15839948244817i
0.002121212121212121      -0.00593939393939394     -258.98801799300264-78.11980970063426i
0.0024242424242424242     -0.00593939393939394     -291.55073766913597-88.33599944493191i
0.0027272727272727275     -0.00593939393939394     -323.37146339574946-98.38564539490382i
0.0030303030303030303     -0.00593939393939394     -354.3172485104726-107.49880124632915i
0.003333333333333333      -0.00593939393939394     -381.8265207766593-116.0940112008878i
0.0036363636363636364     -0.00593939393939394     -408.39213116099626-124.56614212559349i
0.00393939393939394       -0.00593939393939394     -434.0329092872366-132.8389776987522i
0.004242424242424242      -0.00593939393939394     -456.29932003176873-139.55679497601744i
0.004545454545454545      -0.00593939393939394     -476.8798350420876-146.3274274298344i
0.0048484848484848485     -0.00593939393939394     -496.444847463004-152.90092120606417i
0.005151515151515152      -0.00593939393939394     -513.4347087812424-158.47318222912867i
0.005454545454545455      -0.00593939393939394     -527.8728068959687-163.64361037782515i
0.005757575757575757      -0.00593939393939394     -541.2942762738636-168.64991655329467i
0.006060606060606061      -0.00593939393939394     -553.1455294454756-173.19668558770383i
0.006363636363636364      -0.00593939393939394     -561.8275264520721-177.09328191114744i
0.006666666666666666      -0.00593939393939394     -569.5664217845801-180.88101615068666i
0.0069696969696969695     -0.00593939393939394     -576.3625903126434-184.56718884043866i
0.007272727272727273      -0.00593939393939394     -580.3412634150175-187.75668649219304i
0.007575757575757576      -0.00593939393939394     -583.2563482979937-190.78851170484774i
0.00787878787878788       -0.00593939393939394     -585.3544558558876-193.7764114099928i
0.008181818181818182      -0.00593939393939394     -585.8008833394966-196.78468608445863i
0.008484848484848484      -0.00593939393939394     -584.9312040418521-199.52796167153022i
0.008787878787878787      -0.00593939393939394     -583.397029160749-202.29017085673158i
0.00909090909090909       -0.00593939393939394     -580.9838437416953-205.3340294678969i
0.009393939393939394      -0.00593939393939394     -577.3750404212034-208.1812803172836i
0.009696969696969697      -0.00593939393939394     -573.2573894546765-211.0998919574482i
0.01                      -0.00593939393939394     -568.640732890948-214.2408677183445i
0.010303030303030303      -0.00593939393939394     -563.2540582291156-217.61073276129565i
0.010606060606060607      -0.00593939393939394     -557.4705896589841-220.94833028761929i
0.01090909090909091       -0.00593939393939394     -551.3205947533154-224.395610159516i
0.011212121212121211      -0.00593939393939394     -544.8912630465196-228.40314430899033i
0.011515151515151515      -0.00593939393939394     -538.1745162978762-232.3067949077134i
0.011818181818181818      -0.00593939393939394     -531.2112318043447-236.34490705280245i
0.012121212121212121      -0.00593939393939394     -524.1584602478528-240.89105614954948i
0.012424242424242424      -0.00593939393939394     -517.0488472650633-245.41924759045648i
0.012727272727272728      -0.00593939393939394     -509.78757923604974-250.09620866839748i
0.013030303030303031      -0.00593939393939394     -502.4578203323258-255.17837746928998i
0.013333333333333332      -0.00593939393939394     -495.3302869347001-260.364607010962i
0.013636363636363636      -0.00593939393939394     -488.11794050845697-265.67655880293245i
0.013939393939393939      -0.00593939393939394     -480.8250782513008-271.14500142933053i
0.014242424242424242      -0.00593939393939394     -473.871827425486-277.12273461804136i
0.014545454545454545      -0.00593939393939394     -466.9241259563535-283.04227964519663i
0.014848484848484849      -0.00593939393939394     -459.9468126315312-289.1230700960709i
0.015151515151515152      -0.00593939393939394     -453.22029671626603-295.63037458548393i
0.015454545454545455      -0.00593939393939394     -446.6586074225401-302.12632000119515i
0.01575757575757576       -0.00593939393939394     -440.1021631608417-308.78820174914165i
0.01606060606060606       -0.00593939393939394     -433.6945115724256-315.82274191325376i
0.016363636363636365      -0.00593939393939394     -427.5767993263059-322.8719804683158i
0.016666666666666666      -0.00593939393939394     -421.48712283897186-330.09395840288005i
0.016969696969696968      -0.00593939393939394     -415.43434533522696-337.50927227080393i
0.017272727272727273      -0.00593939393939394     -409.7982021853772-345.25425721304384i
0.017575757575757574      -0.00593939393939394     -404.18472819579557-353.0315049027718i
0.01787878787878788       -0.00593939393939394     -398.61336196338766-360.99208653003706i
0.01818181818181818       -0.00593939393939394     -393.35426490223375-369.29376576793794i
0.018484848484848486      -0.00593939393939394     -388.2060383634423-377.6410022680721i
0.018787878787878787      -0.00593939393939394     -383.1078497975569-386.1874505026835i
0.019090909090909092      -0.00593939393939394     -378.2235146385379-395.0669159286958i
0.019393939393939394      -0.00593939393939394     -373.51973835703467-404.0213012467342i
0.019696969696969695      -0.00593939393939394     -368.86960071010316-413.1976897137255i
0.02                      -0.00593939393939394     -364.32363958357854-422.65530970122677i
0.020303030303030302      -0.00593939393939394     -360.0719922436339-432.341453239479i
0.020606060606060607      -0.00593939393939394     -355.8422687086954-442.2205585547735i
0.02090909090909091       -0.00593939393939394     -351.66654754406534-452.35349117789076i
0.021212121212121213      -0.00593939393939394     -347.79771535319884-462.85721648493853i
0.021515151515151515      -0.00593939393939394     -343.96010646053134-473.5483150707919i
0.02181818181818182       -0.00593939393939394     -340.1740268670645-484.53712301881257i
0.02212121212121212       -0.00593939393939394     -336.62363697659697-495.9361150700546i
0.022424242424242423      -0.00593939393939394     -333.14690211442803-507.5975399323292i
0.022727272727272728      -0.00593939393939394     -329.71609228959215-519.6171492559859i
0.02303030303030303       -0.00593939393939394     -326.449878537957-532.0843018206866i
0.023333333333333334      -0.00593939393939394     -323.3040440164957-544.9533748496951i
0.023636363636363636      -0.00593939393939394     -320.1819585173359-558.2540931151002i
0.02393939393939394       -0.00593939393939394     -317.09610312698595-571.9971972206889i
0.024242424242424242      -0.00593939393939394     -314.28514582190354-586.4387255002093i
0.024545454545454544      -0.00593939393939394     -311.39518074922336-601.3804305786477i
0.02484848484848485       -0.00593939393939394     -308.52621634244474-616.8843767050649i
0.02515151515151515       -0.00593939393939394     -305.85717269006216-633.2344665137797i
0.025454545454545455      -0.00593939393939394     -303.06002360786414-650.336273454316i
0.025757575757575757      -0.00593939393939394     -300.2621883571295-668.1786909375919i
0.026060606060606062      -0.00593939393939394     -297.60945934287827-686.986852902751i
0.026363636363636363      -0.00593939393939394     -294.6406253484086-707.0063272978946i
0.026666666666666665      -0.00593939393939394     -291.64578384317826-728.0566369202213i
0.02696969696969697       -0.00593939393939394     -288.6524708915635-750.1633819619508i
0.02727272727272727       -0.00593939393939394     -285.27967541086775-774.3504328167762i
0.027575757575757576      -0.00593939393939394     -281.6140073274744-800.0262156646589i
0.027878787878787878      -0.00593939393939394     -277.91004165165225-827.2883751841273i
0.028181818181818183      -0.00593939393939394     -273.5903999898986-857.4129522925554i
0.028484848484848484      -0.00593939393939394     -268.42254049175244-890.3999564136633i
0.02878787878787879       -0.00593939393939394     -263.28444664048425-926.3506471199604i
0.02909090909090909       -0.00593939393939394     -256.993426731559-966.7395930504932i
0.029393939393939392      -0.00593939393939394     -248.89616238871437-1016.5741093301181i
0.029696969696969697      -0.00593939393939394     -242.2233427229407-1084.8814248944213i
0.03                      -0.00593939393939394     2.249013700146359E-11-4.4352717193065665E-12i
0                         -0.005878787878787879    0.1672170815725967+1.077449210290954i
3.0303030303030303E-4     -0.005878787878787879    -53.88156257401841-14.206148179587275i
6.060606060606061E-4      -0.005878787878787879    -107.23882871642105-29.293522959080878i
9.090909090909091E-4      -0.005878787878787879    -160.41613216769076-44.348035507153476i
0.0012121212121212121     -0.005878787878787879    -212.28838103127097-56.99665080612739i
0.0015151515151515152     -0.005878787878787879    -262.6587412599001-71.26129871127591i
0.0018181818181818182     -0.005878787878787879    -312.54286330683107-85.41313831867568i
0.002121212121212121      -0.005878787878787879    -360.6538078339953-97.4684089088181i
0.0024242424242424242     -0.005878787878787879    -405.18324400207246-109.86289211778274i
0.0027272727272727275     -0.005878787878787879    -448.97068622063244-122.0908315324221i
0.0030303030303030303     -0.005878787878787879    -491.5905159941043-133.10818249246654i
0.003333333333333333      -0.005878787878787879    -528.5217501611312-142.69154243757748i
0.0036363636363636364     -0.005878787878787879    -564.3110561212891-152.40321506768757i
0.00393939393939394       -0.005878787878787879    -599.1735148047613-161.83754489177065i
0.004242424242424242      -0.005878787878787879    -628.2447287873724-168.79769491887467i
0.004545454545454545      -0.005878787878787879    -654.9576490819187-175.80266055411167i
0.0048484848484848485     -0.005878787878787879    -680.6550667870579-182.6104875117608i
0.005151515151515152      -0.005878787878787879    -702.1929584041875-187.77393011898974i
0.005454545454545455      -0.005878787878787879    -719.6764921867798-192.24765025494668i
0.005757575757575757      -0.005878787878787879    -736.1433972325458-196.55724841767739i
0.006060606060606061      -0.005878787878787879    -750.4231501789541-200.18953772076563i
0.006363636363636364      -0.005878787878787879    -759.411754684387-202.66475837082686i
0.006666666666666666      -0.005878787878787879    -767.4458835107728-205.05049672263783i
0.0069696969696969695     -0.005878787878787879    -774.431336209081-207.3361838798007i
0.007272727272727273      -0.005878787878787879    -776.8257926412854-208.78156398406185i
0.007575757575757576      -0.005878787878787879    -777.8676023574258-210.00234658681322i
0.00787878787878788       -0.005878787878787879    -778.0924347484937-211.17920368205588i
0.008181818181818182      -0.005878787878787879    -775.7388208277558-212.40508009749152i
0.008484848484848484      -0.005878787878787879    -771.492210846704-213.21480994589106i
0.008787878787878787      -0.005878787878787879    -766.5811052821815-214.04347339241968i
0.00909090909090909       -0.005878787878787879    -760.5114487543144-215.33372508021077i
0.009393939393939394      -0.005878787878787879    -752.6500136734228-216.34729214414176i
0.009696969696969697      -0.005878787878787879    -744.2797309464963-217.4322199988505i
0.01                      -0.005878787878787879    -735.3749385560905-218.84763086904047i
0.010303030303030303      -0.005878787878787879    -725.405134100038-220.68586156130132i
0.010606060606060607      -0.005878787878787879    -715.0090499564336-222.42332334717807i
0.01090909090909091       -0.005878787878787879    -704.2464394772873-224.27046747862792i
0.011212121212121211      -0.005878787878787879    -693.221335989965-227.0627153242103i
0.011515151515151515      -0.005878787878787879    -681.9070545578185-229.6516937457735i
0.011818181818181818      -0.005878787878787879    -670.3462353807931-232.37513371370247i
0.012121212121212121      -0.005878787878787879    -658.8153677408876-235.89965686854978i
0.012424242424242424      -0.005878787878787879    -647.3635511788359-239.39233498118875i
0.012727272727272728      -0.005878787878787879    -635.7600795705728-243.03378273086105i
0.013030303030303031      -0.005878787878787879    -624.1568845808811-247.17908408193668i
0.013333333333333332      -0.005878787878787879    -613.0689443540437-251.66612217984877i
0.013636363636363636      -0.005878787878787879    -601.9003262041089-256.18303653091874i
0.013939393939393939      -0.005878787878787879    -590.6658264444554-260.9050466183656i
0.014242424242424242      -0.005878787878787879    -580.124782441088-266.3469212288727i
0.014545454545454545      -0.005878787878787879    -569.658795376254-271.66134211593373i
0.014848484848484849      -0.005878787878787879    -559.1631964557286-277.13700842671403i
0.015151515151515152      -0.005878787878787879    -549.1762409664407-283.2492991126546i
0.015454545454545455      -0.005878787878787879    -539.536234419895-289.28046975787646i
0.01575757575757576       -0.005878787878787879    -529.9014729053717-295.4775767353345i
0.01606060606060606       -0.005878787878787879    -520.5327202456665-302.1544073343758i
0.016363636363636365      -0.005878787878787879    -511.7582011624469-308.8738143347737i
0.016666666666666666      -0.005878787878787879    -503.0042404666255-315.7291183874514i
0.016969696969696968      -0.005878787878787879    -494.3335943485927-322.845635172364i
0.017272727272727273      -0.005878787878787879    -486.3700167463893-330.3244114799936i
0.017575757575757574      -0.005878787878787879    -478.4678793080981-337.8002037346829i
0.01787878787878788       -0.005878787878787879    -470.60784962698347-345.4593299269092i
0.01818181818181818       -0.005878787878787879    -463.30906353911746-353.5810374977277i
0.018484848484848486      -0.005878787878787879    -456.2068090474127-361.66860071261755i
0.018787878787878787      -0.005878787878787879    -449.1545925286088-369.9553756619859i
0.019090909090909092      -0.005878787878787879    -442.4564567418071-378.6681581835381i
0.019393939393939394      -0.005878787878787879    -436.09550717316716-387.3903264988747i
0.019696969696969695      -0.005878787878787879    -429.7881962390952-396.33449796316586i
0.02                      -0.005878787878787879    -423.6399078349846-405.5978864105515i
0.020303030303030302      -0.005878787878787879    -417.99585274840615-415.1112780407173i
0.020606060606060607      -0.005878787878787879    -412.3740488272987-424.7808877333767i
0.02090909090909091       -0.005878787878787879    -406.8062472765006-434.7043247338583i
0.021212121212121213      -0.005878787878787879    -401.7718811143862-445.0857799387334i
0.021515151515151515      -0.005878787878787879    -396.781924418774-455.5972412374913i
0.02181818181818182       -0.005878787878787879    -391.84349702236284-466.4064118984159i
0.02212121212121212       -0.005878787878787879    -387.2925539710379-477.70677146346503i
0.022424242424242423      -0.005878787878787879    -382.8817300715669-489.24234750360154i
0.022727272727272728      -0.005878787878787879    -378.5168312094332-501.13610800511776i
0.02303030303030303       -0.005878787878787879    -374.375340255268-513.5115582610516i
0.023333333333333334      -0.005878787878787879    -370.5220822376652-526.3877594589987i
0.023636363636363636      -0.005878787878787879    -366.6593236628074-539.6655010494015i
0.02393939393939394       -0.005878787878787879    -362.86098184660403-553.4038505902657i
0.024242424242424242      -0.005878787878787879    -359.4861284517349-568.0071034078871i
0.024545454545454544      -0.005878787878787879    -356.0055407706994-583.1165868091676i
0.02484848484848485       -0.005878787878787879    -352.54595375556454-598.7883112584279i
0.02515151515151515       -0.005878787878787879    -349.42176713971963-615.5336139124258i
0.025454545454545455      -0.005878787878787879    -346.09223917558086-633.1355070829284i
0.025757575757575757      -0.005878787878787879    -342.7620250429083-651.4780107961692i
0.026060606060606062      -0.005878787878787879    -339.6395480206238-670.9393130041241i
0.026363636363636363      -0.005878787878787879    -336.0320117018132-692.0197853423851i
0.026666666666666665      -0.005878787878787879    -332.36092866459387-714.1150269184078i
0.02696969696969697       -0.005878787878787879    -328.76254212433696-737.3758252870612i
0.02727272727272727       -0.005878787878787879    -324.32038668842614-763.3746800950894i
0.027575757575757576      -0.005878787878787879    -319.4177276856841-790.9540228823156i
0.027878787878787878      -0.005878787878787879    -314.47677109051244-820.1197423411271i
0.028181818181818183      -0.005878787878787879    -308.3382206622008-853.1748519195589i
0.028484848484848484      -0.005878787878787879    -300.51261907301625-889.4017970886549i
0.02878787878787879       -0.005878787878787879    -292.7167831307108-928.592428842938i
0.02909090909090909       -0.005878787878787879    -282.8007871036681-974.2846836323183i
0.029393939393939392      -0.005878787878787879    -268.45173117693724-1028.3737120677583i
0.029696969696969697      -0.005878787878787879    -255.5271199272785-1100.9355397878799i
0.03                      -0.005878787878787879    2.288523644478382E-11-4.470409856633827E-12i
0                         -0.005818181818181819    0.2429025105493505+1.4939813550675654i
3.0303030303030303E-4     -0.005818181818181819    -69.22220850621407-17.37523691334618i
6.060606060606061E-4      -0.005818181818181819    -137.69069918955412-35.645001380614616i
9.090909090909091E-4      -0.005818181818181819    -205.9918495845869-53.83233783676358i
0.0012121212121212121     -0.005818181818181819    -272.4994658626345-69.25959011509774i
0.0015151515151515152     -0.005818181818181819    -336.9216098865493-86.4106258265776i
0.0018181818181818182     -0.005818181818181819    -400.8575157287633-103.44885324030825i
0.002121212121212121      -0.005818181818181819    -462.45583399691856-117.96551554436296i
0.0024242424242424242     -0.005818181818181819    -518.9519866569403-132.5382922179947i
0.0027272727272727275     -0.005818181818181819    -574.7061453674445-146.9445250973011i
0.0030303030303030303     -0.005818181818181819    -628.8447998464037-159.96769656695236i
0.003333333333333333      -0.005818181818181819    -675.3726560780494-170.74941695971043i
0.0036363636363636364     -0.005818181818181819    -720.3856576140298-181.7006312952252i
0.00393939393939394       -0.005818181818181819    -764.3323807999703-192.21658051170354i
0.004242424242424242      -0.005818181818181819    -800.3442778347288-199.6991287624128i
0.004545454545454545      -0.005818181818181819    -833.1896034134896-206.93842757906768i
0.0048484848484848485     -0.005818181818181819    -865.0194264028513-213.98058771813615i
0.005151515151515152      -0.005818181818181819    -891.0765743965978-218.84489958461975i
0.005454545454545455      -0.005818181818181819    -911.6055438470639-222.62191170783828i
0.005757575757575757      -0.005818181818181819    -931.1178845606977-226.23480185782964i
0.006060606060606061      -0.005818181818181819    -947.6507182032137-228.97377527108355i
0.006363636363636364      -0.005818181818181819    -957.0693490752651-230.04285327703994i
0.006666666666666666      -0.005818181818181819    -965.3987113955287-231.02659574112252i
0.0069696969696969695     -0.005818181818181819    -972.4022188097632-231.8685162283555i
0.007272727272727273      -0.005818181818181819    -973.3206991424316-231.5718912831814i
0.007575757575757576      -0.005818181818181819    -972.4892336917479-230.98163127603064i
0.00787878787878788       -0.005818181818181819    -970.8407909159869-230.34744576137064i
0.008181818181818182      -0.005818181818181819    -965.6237748533437-229.70453343654108i
0.008484848484848484      -0.005818181818181819    -958.000234188876-228.58071754626803i
0.008787878787878787      -0.005818181818181819    -949.71219794094-227.4758352541241i