% Model:              FEA.mph
% Version:            COMSOL 5.1.0.145
% Date:               Jun 19 2022, 10:53
% Dimension:          2
% Nodes:              10000
% Expressions:        1
% Description:        Current density, phi component
% Length unit:        m
% r                       z                        mf.Jphi (A/m^2) @ freq=20000
0                         -0.006                   1.3999629818695195E-7-4.129357781184663E-7i
3.0303030303030303E-4     -0.006                   2.1070154967218585E-4-6.214901855644865E-4i
6.060606060606061E-4      -0.006                   4.1958162012836617E-4-0.0012376076952148028i
9.090909090909091E-4      -0.006                   6.267802076667281E-4-0.0018487654647290676i
0.0012121212121212121     -0.006                   8.316491457620588E-4-0.002453051647689476i
0.0015151515151515152     -0.006                   0.0010320320281660032-0.00304410565947274i
0.0018181818181818182     -0.006                   0.0012277607369228294-0.003621431615483946i
0.002121212121212121      -0.006                   0.0014186127485956302-0.0041843731556168275i
0.0024242424242424242     -0.006                   0.0016027255105661498-0.00472743645252355i
0.0027272727272727275     -0.006                   0.0017796822547469747-0.005249392197522918i
0.0030303030303030303     -0.006                   0.001949453922612283-0.005750154678950088i
0.003333333333333333      -0.006                   0.002110827604267885-0.006226146270372887i
0.0036363636363636364     -0.006                   0.002263262646883599-0.006675772249682133i
0.00393939393939394       -0.006                   0.002406759050459427-0.007099032616877829i
0.004242424242424242      -0.006                   0.00254082530735176-0.007494477609920874i
0.004545454545454545      -0.006                   0.0026650243047575068-0.007860817910563447i
0.0048484848484848485     -0.006                   0.0027793893925280324-0.008198151888228955i
0.005151515151515152      -0.006                   0.0028837665634039687-0.008506025279642913i
0.005454545454545455      -0.006                   0.0029781571093149364-0.008784441895017052i
0.005757575757575757      -0.006                   0.0030627154681635055-0.009033857267696432i
0.006060606060606061      -0.006                   0.0031373928903808876-0.009254127604873428i
0.006363636363636364      -0.006                   0.003202472897051891-0.009446089186363442i
0.006666666666666666      -0.006                   0.0032584369996458197-0.009611162288889231i
0.0069696969696969695     -0.006                   0.0033052851981626727-0.009749346912450805i
0.007272727272727273      -0.006                   0.0033433231705222916-0.00986154469137533i
0.007575757575757576      -0.006                   0.0033734544021599344-0.009950420566179721i
0.00787878787878788       -0.006                   0.003395706781448695-0.010016056797022182i
0.008181818181818182      -0.006                   0.0034102581413707513-0.010058977924028366i
0.008484848484848484      -0.006                   0.0034182375832156257-0.010082514369400315i
0.008787878787878787      -0.006                   0.003419823646399427-0.010087192756948573i
0.00909090909090909       -0.006                   0.003415071454618143-0.010073175680770013i
0.009393939393939394      -0.006                   0.003405039524064873-0.010043585363861076i
0.009696969696969697      -0.006                   0.0033901296270532747-0.009999606882770401i
0.01                      -0.006                   0.003370341763583346-0.00994124023749799i
0.010303030303030303      -0.006                   0.0033463950693935172-0.009870606606988092i
0.010606060606060607      -0.006                   0.0033189631028603915-0.009789692734101574i
0.01090909090909091       -0.006                   0.0032880458639839663-0.009698498618838433i
0.011212121212121211      -0.006                   0.003253982279462638-0.009598023967052983i
0.011515151515151515      -0.006                   0.0032175848323080652-0.00949066529696486i
0.011818181818181818      -0.006                   0.0031788858250581253-0.009376517888862243i
0.012121212121212121      -0.006                   0.003137994586399571-0.009255904221126982i
0.012424242424242424      -0.006                   0.003095628818791724-0.009130941245244661i
0.012727272727272728      -0.006                   0.0030519086883970046-0.009001983406054513i
0.013030303030303031      -0.006                   0.0030068469935836096-0.008869068453916466i
0.013333333333333332      -0.006                   0.0029609418626143917-0.008733665679371365i
0.013636363636363636      -0.006                   0.0029144018985261277-0.008596390382721116i
0.013939393939393939      -0.006                   0.002867227101318819-0.008457242563965732i
0.014242424242424242      -0.006                   0.00281965371412198-0.008316919051301894i
0.014545454545454545      -0.006                   0.0027719757700131464-0.008176287131519822i
0.014848484848484849      -0.006                   0.0027241865654793473-0.008035327031785644i
0.015151515151515152      -0.006                   0.0026763708170766507-0.007894288634029899i
0.015454545454545455      -0.006                   0.0026288013868182177-0.00775397677846457i
0.01575757575757576       -0.006                   0.002581484512152379-0.007614409863229801i
0.01606060606060606       -0.006                   0.0025344385495143463-0.007475642032897081i
0.016363636363636365      -0.006                   0.002487862967194246-0.0073382616438926645i
0.016666666666666666      -0.006                   0.00244178060544088-0.007202336066405144i
0.016969696969696968      -0.006                   0.0023961914642542494-0.007067865300434526i
0.017272727272727273      -0.006                   0.0023512077523768857-0.006935180319597083i
0.017575757575757574      -0.006                   0.002306870763524694-0.006804402924925367i
0.01787878787878788       -0.006                   0.0022631754529448948-0.006675518236299568i
0.01818181818181818       -0.006                   0.0022201655396413534-0.006548655208361953i
0.018484848484848486      -0.006                   0.0021778921698720317-0.0064239647034827225i
0.018787878787878787      -0.006                   0.002136342627449167-0.006301409213713101i
0.019090909090909092      -0.006                   0.00209553045365422-0.0061810286807483066i
0.019393939393939394      -0.006                   0.00205549641863698-0.006062943361349199i
0.019696969696969695      -0.006                   0.0020162211572859615-0.005947096135778549i
0.02                      -0.006                   0.001977704669601163-0.005833487004036353i
0.020303030303030302      -0.006                   0.001939981524409632-0.0057222179312711495i
0.020606060606060607      -0.006                   0.0019030204284722792-0.005613196614309126i
0.02090909090909091       -0.006                   0.0018668213817891097-0.005506423053150299i
0.021212121212121213      -0.006                   0.0018313992091497106-0.005401940975403287i
0.021515151515151515      -0.006                   0.0017967298889636357-0.005299679526559359i
0.02181818181818182       -0.006                   0.001762804323582201-0.005199611871984741i
0.02212121212121212       -0.006                   0.0017296292323843896-0.005101757831337507i
0.022424242424242423      -0.006                   0.0016971864524164535-0.00500606383087601i
0.022727272727272728      -0.006                   0.0016654566806199626-0.004912472933868565i
0.02303030303030303       -0.006                   0.0016344415317586757-0.0048209899032626i
0.023333333333333334      -0.006                   0.0016041325665695797-0.004731589846508087i
0.023636363636363636      -0.006                   0.0015744977779644817-0.004644178354790403i
0.02393939393939394       -0.006                   0.0015455371659433802-0.004558755428109543i
0.024242424242424242      -0.006                   0.001517249100321105-0.0044753162580789775i
0.024545454545454544      -0.006                   0.00148959637816093-0.004393751110108457i
0.02484848484848485       -0.006                   0.0014625751375007478-0.004314048592863482i
0.02515151515151515       -0.006                   0.0014361862233978194-0.004236211198958676i
0.025454545454545455      -0.006                   0.0014103964032269056-0.0041601409047205586i
0.025757575757575757      -0.006                   0.0013851937543890005-0.004085802542976682i
0.026060606060606062      -0.006                   0.0013605796264296221-0.004013200094378827i
0.026363636363636363      -0.006                   0.0013365319438758511-0.003942268444622155i
0.026666666666666665      -0.006                   0.0013130278924726397-0.0038729403002594497i
0.02696969696969697       -0.006                   0.0012900674722199888-0.0038052156612907147i
0.02727272727272727       -0.006                   0.0012676417553306911-0.003739068194098489i
0.027575757575757576      -0.006                   0.0012457188781762022-0.0036744039129993234i
0.027878787878787878      -0.006                   0.0012242977380255435-0.003611219565353694i
0.028181818181818183      -0.006                   0.0012033749621957084-0.0035495052029950566i
0.028484848484848484      -0.006                   0.001182920227197396-0.0034891713830515385i
0.02878787878787879       -0.006                   0.0011629279195567012-0.0034302015479023224i
0.02909090909090909       -0.006                   0.001143397536561224-0.0033725942147048303i
0.029393939393939392      -0.006                   0.0011243037649899719-0.003316274718970412i
0.029696969696969697      -0.006                   0.0011056345085643448-0.00326120738131457i
0.03                      -0.006                   0.0010873897672843463-0.003207392201737312i
0                         -0.00593939393939394     -1.015123831513014E-7+2.9942338399290214E-7i
3.0303030303030303E-4     -0.00593939393939394     2.1340452489664933E-4-6.294629433075578E-4i
6.060606060606061E-4      -0.00593939393939394     4.253864759909052E-4-0.0012547298306458533i
9.090909090909091E-4      -0.00593939393939394     6.356869441673424E-4-0.0018750369778480964i
0.0012121212121212121     -0.00593939393939394     8.429862572568844E-4-0.0024864918509118843i
0.0015151515151515152     -0.00593939393939394     0.0010462779192675867-0.0030861256652185273i
0.0018181818181818182     -0.00593939393939394     0.0012449154076311713-0.003672031423753114i
0.002121212121212121      -0.00593939393939394     0.0014379614667113867-0.00424144457686445i
0.0024242424242424242     -0.00593939393939394     0.0016245209965343385-0.004791724916104399i
0.0027272727272727275     -0.00593939393939394     0.0018039245085675955-0.005320897703436993i
0.0030303030303030303     -0.00593939393939394     0.0019757592446387824-0.005827745458500606i
0.003333333333333333      -0.00593939393939394     0.002138954917489723-0.006309111237077051i
0.0036363636363636364     -0.00593939393939394     0.00229324562948816-0.006764210741433818i
0.00393939393939394       -0.00593939393939394     0.002438597702446711-0.007192944633677035i
0.004242424242424242      -0.00593939393939394     0.002573779285690359-0.007591679419671432i
0.004545454545454545      -0.00593939393939394     0.0026991684537176486-0.007961530275294282i
0.0048484848484848485     -0.00593939393939394     0.002814723712109719-0.008302374807940079i
0.005151515151515152      -0.00593939393939394     0.0029199122137594756-0.008612641320001505i
0.005454545454545455      -0.00593939393939394     0.0030148327133806075-0.008892621099718615i
0.005757575757575757      -0.00593939393939394     0.0030999210259393456-0.00914359963674098i
0.006060606060606061      -0.00593939393939394     0.003175109890587582-0.009365378537052065i
0.006363636363636364      -0.00593939393939394     0.003240138395300766-0.009557188208134032i
0.006666666666666666      -0.00593939393939394     0.0032960509959368734-0.009722109400251774i
0.0069696969696969695     -0.00593939393939394     0.0033428706995926156-0.009860209975656026i
0.007272727272727273      -0.00593939393939394     0.0033806404922784713-0.009971616726623495i
0.007575757575757576      -0.00593939393939394     0.0034102664660415815-0.01005900228227687i
0.00787878787878788       -0.00593939393939394     0.00343201358745581-0.01012314819396831i
0.008181818181818182      -0.00593939393939394     0.0034461493916287255-0.010164843589085093i
0.008484848484848484      -0.00593939393939394     0.003453317136159783-0.0101859858345147i
0.008787878787878787      -0.00593939393939394     0.003454091502029766-0.010188270022120607i
0.00909090909090909       -0.00593939393939394     0.0034487640042319243-0.010172556010939002i
0.009393939393939394      -0.00593939393939394     0.003437747610606328-0.010140061900163432i
0.009696969696969697      -0.00593939393939394     0.003421853250522402-0.010093179625206124i
0.01                      -0.00593939393939394     0.0034012182549842873-0.010032314260624228i
0.010303030303030303      -0.00593939393939394     0.0033763588431986722-0.009958988458098509i
0.010606060606060607      -0.00593939393939394     0.0033478788482882286-0.009874983297524731i
0.01090909090909091       -0.00593939393939394     0.0033159135810344876-0.009780697894574334i
0.011212121212121211      -0.00593939393939394     0.0032810506928940813-0.009677865599013302i
0.011515151515151515      -0.00593939393939394     0.0032436187577055972-0.009567455579977584i
0.011818181818181818      -0.00593939393939394     0.003203885262421748-0.009450256822927378i
0.012121212121212121      -0.00593939393939394     0.003162183316842364-0.009327251875878732i
0.012424242424242424      -0.00593939393939394     0.0031188459167021715-0.009199422950904916i
0.012727272727272728      -0.00593939393939394     0.0030741541537751085-0.00906759916262328i
0.013030303030303031      -0.00593939393939394     0.0030282717446098117-0.008932263412947955i
0.013333333333333332      -0.00593939393939394     0.002981499542624014-0.008794303106174772i
0.013636363636363636      -0.00593939393939394     0.002934076594820481-0.00865442334085484i
0.013939393939393939      -0.00593939393939394     0.0028860188138979024-0.008512671053429769i
0.014242424242424242      -0.00593939393939394     0.0028377633649237398-0.008370335715785843i
0.014545454545454545      -0.00593939393939394     0.002789301401855891-0.008227391235906246i
0.014848484848484849      -0.00593939393939394     0.002740728178363078-0.008084118576074545i
0.015151515151515152      -0.00593939393939394     0.002692269166163599-0.007941182792682869i
0.015454545454545455      -0.00593939393939394     0.002644014410420382-0.007798849485435169i
0.01575757575757576       -0.00593939393939394     0.0025960122102697573-0.007657261118518032i
0.01606060606060606       -0.00593939393939394     0.002548366701128329-0.007516724852016731i
0.016363636363636365      -0.00593939393939394     0.002501198511349929-0.007377596494450129i
0.016666666666666666      -0.00593939393939394     0.002454523542138264-0.007239922948400426i
0.016969696969696968      -0.00593939393939394     0.00240834851506831-0.007103724039966595i
0.017272727272727273      -0.00593939393939394     0.0023628893217393994-0.006969636567960961i
0.017575757575757574      -0.00593939393939394     0.002318043466475739-0.006837358209162469i
0.01787878787878788       -0.00593939393939394     0.0022738392894844726-0.006706972556409895i
0.01818181818181818       -0.00593939393939394     0.0022303991411074748-0.006578840497012041i
0.018484848484848486      -0.00593939393939394     0.0021876907108487253-0.006452866727587055i
0.018787878787878787      -0.00593939393939394     0.002145706107936431-0.006329027973271674i
0.019090909090909092      -0.00593939393939394     0.002104501819120231-0.006207490848596826i
0.019393939393939394      -0.00593939393939394     0.002064096700652659-0.006088310972748334i
0.019696969696969695      -0.00593939393939394     0.002024450355851307-0.005971369190728295i
0.02                      -0.00593939393939394     0.001985574679971523-0.005856700589013664i
0.020303030303030302      -0.00593939393939394     0.0019475394485129714-0.005744510979167496i
0.020606060606060607      -0.00593939393939394     0.0019102621227529324-0.005634556903239685i
0.02090909090909091       -0.00593939393939394     0.001873746846247078-0.005526850583115074i
0.021212121212121213      -0.00593939393939394     0.001838051452624888-0.005421562606165136i
0.021515151515151515      -0.00593939393939394     0.001803112588277637-0.005318506103426275i
0.02181818181818182       -0.00593939393939394     0.0017689174787350282-0.005217643394956728i
0.02212121212121212       -0.00593939393939394     0.0017354950346691238-0.005119059756277016i
0.022424242424242423      -0.00593939393939394     0.0017028222545960683-0.005022687341952928i
0.022727272727272728      -0.00593939393939394     0.0016708624826944553-0.004928418031082885i
0.02303030303030303       -0.00593939393939394     0.0016396240179078338-0.004836276302357787i
0.023333333333333334      -0.00593939393939394     0.001609118615721941-0.004746296830225002i
0.023636363636363636      -0.00593939393939394     0.0015792872703268446-0.0046583055697931326i
0.02393939393939394       -0.00593939393939394     0.0015501301015157446-0.004572302874398088i
0.024242424242424242      -0.00593939393939394     0.0015216695633425488-0.00448835497498727i
0.024545454545454544      -0.00593939393939394     0.0014938484820783634-0.004406293230821212i
0.02484848484848485       -0.00593939393939394     0.00146665888231417-0.004326094117380701i
0.02515151515151515       -0.00593939393939394     0.0014401135430911257-0.004247795327947585i
0.025454545454545455      -0.00593939393939394     0.0014141792484387225-0.004171298888114448i
0.025757575757575757      -0.00593939393939394     0.001388832125119328-0.004096534380775552i
0.026060606060606062      -0.00593939393939394     0.0013640767667227047-0.004023515355212171i
0.026363636363636363      -0.00593939393939394     0.0013399047328200072-0.00395221691547216i
0.026666666666666665      -0.00593939393939394     0.00131627633006787-0.003882521981126118i
0.02696969696969697       -0.00593939393939394     0.00129319158263685-0.0038144306234587145i
0.02727272727272727       -0.00593939393939394     0.0012706554223958317-0.003747957389509769i
0.027575757575757576      -0.00593939393939394     0.0012486252631485006-0.0036829766662297933i
0.027878787878787878      -0.00593939393939394     0.0012270968409049971-0.0036194758764033484i
0.028181818181818183      -0.00593939393939394     0.0012060735791575398-0.003557465117878061i
0.028484848484848484      -0.00593939393939394     0.0011855258123970465-0.0034968568887397107i
0.02878787878787879       -0.00593939393939394     0.00116544047299417-0.0034376126443956584i
0.02909090909090909       -0.00593939393939394     0.0011458201964230769-0.003379740158312918i
0.029393939393939392      -0.00593939393939394     0.0011266448655693998-0.003323180092629469i
0.029696969696969697      -0.00593939393939394     0.0011078940498613502-0.0032678721850246018i
0.03                      -0.00593939393939394     0.0010895722746213417-0.003213829783030375i
0                         -0.005878787878787879    -3.133802935582671E-7+9.243534980903745E-7i
3.0303030303030303E-4     -0.005878787878787879    2.1624275018628596E-4-6.378346375168263E-4i
6.060606060606061E-4      -0.005878787878787879    4.313265819186173E-4-0.0012722509025431005i
9.090909090909091E-4      -0.005878787878787879    6.447289307331298E-4-0.0019017074274333228i
0.0012121212121212121     -0.005878787878787879    8.546254895632837E-4-0.002520823196099834i
0.0015151515151515152     -0.005878787878787879    0.0010608259311807452-0.0031290368129298584i
0.0018181818181818182     -0.005878787878787879    0.0012623721991510877-0.003723522373987824i
0.002121212121212121      -0.005878787878787879    0.0014577756605195615-0.0042998889750947115i
0.0024242424242424242     -0.005878787878787879    0.0016467819581949448-0.0048573863566678845i
0.0027272727272727275     -0.005878787878787879    0.0018286322380806342-0.0053937761863337074i
0.0030303030303030303     -0.005878787878787879    0.00200272341532786-0.0059072795919984595i
0.003333333333333333      -0.005878787878787879    0.002167662396764387-0.00639378747385851i
0.0036363636363636364     -0.005878787878787879    0.0023238087781455477-0.006854360503262799i
0.00393939393939394       -0.005878787878787879    0.002470976096337679-0.0072884486846309i
0.004242424242424242      -0.005878787878787879    0.0026073780553359438-0.007690783119473453i
0.004545454545454545      -0.005878787878787879    0.002733957393984777-0.00806414453007659i
0.0048484848484848485     -0.005878787878787879    0.0028507028229983918-0.008408499617702672i
0.005151515151515152      -0.005878787878787879    0.002956714887163298-0.00872119532934634i
0.005454545454545455      -0.005878787878787879    0.0030521653404945947-0.009002738273406424i
0.005757575757575757      -0.005878787878787879    0.0031377836067634987-0.009255279974771763i
0.006060606060606061      -0.005878787878787879    0.0032134248669114635-0.009478393272005527i
0.006363636363636364      -0.005878787878787879    0.0032784264536389273-0.009670123546129478i
0.006666666666666666      -0.005878787878787879    0.0033342875523172132-0.009834892827839172i
0.0069696969696969695     -0.005878787878787879    0.003381107262027259-0.009972993422022684i
0.007272727272727273      -0.005878787878787879    0.0034185124049116527-0.010083324594573118i
0.007575757575757576      -0.005878787878787879    0.0034476331208002304-0.01016921983107547i
0.00787878787878788       -0.005878787878787879    0.003468874984339927-0.010231875423615899i
0.008181818181818182      -0.005878787878787879    0.0034825103253763546-0.010272094642122715i
0.008484848484848484      -0.005878787878787879    0.003488866372593595-0.010290842687609974i
0.008787878787878787      -0.005878787878787879    0.0034888290411497634-0.010290732675273544i
0.00909090909090909       -0.005878787878787879    0.003482837974246488-0.010273061386330716i
0.009393939393939394      -0.005878787878787879    0.0034708371175485647-0.010237663481688508i
0.009696969696969697      -0.005878787878787879    0.003453958294392312-0.010187877412864563i
0.01                      -0.005878787878787879    0.00343242952708944-0.010124375759484988i
0.010303030303030303      -0.005878787878787879    0.0034066217266821718-0.010048252568915244i
0.010606060606060607      -0.005878787878787879    0.0033770937033944103-0.009961156120654204i
0.01090909090909091       -0.005878787878787879    0.003344080407763351-0.009863779430016543i
0.011212121212121211      -0.005878787878787879    0.003308346925464127-0.009758379210545346i
0.011515151515151515      -0.005878787878787879    0.003269880502241731-0.009644917842562033i
0.011818181818181818      -0.005878787878787879    0.0032291125189239716-0.009524667736564239i
0.012121212121212121      -0.005878787878787879    0.003186541327572852-0.009399098842736176i
0.012424242424242424      -0.005878787878787879    0.0031422322949003142-0.00926840396867087i
0.012727272727272728      -0.005878787878787879    0.003096568899440907-0.009133714231297742i
0.013030303030303031      -0.005878787878787879    0.003049782187841028-0.008995711130864333i
0.013333333333333332      -0.005878787878787879    0.0030021802641569508-0.008855303458228696i
0.013636363636363636      -0.005878787878787879    0.002953874332638149-0.00871281922423908i
0.013939393939393939      -0.005878787878787879    0.002904959880526208-0.008568540080143036i
0.014242424242424242      -0.005878787878787879    0.00285596056595648-0.008424010619648833i
0.014545454545454545      -0.005878787878787879    0.002806714583929615-0.008278753579671708i
0.014848484848484849      -0.005878787878787879    0.002757357341477785-0.008133168359742479i
0.015151515151515152      -0.005878787878787879    0.00270822839209919-0.007988256514347298i
0.015454545454545455      -0.005878787878787879    0.0026592883108711865-0.007843901755417226i
0.01575757575757576       -0.005878787878787879    0.0026106007852357747-0.007700291936817714i
0.01606060606060606       -0.005878787878787879    0.0025623258851547584-0.007557899204384152i
0.016363636363636365      -0.005878787878787879    0.002514575213723108-0.007417052745540257i
0.016666666666666666      -0.005878787878787879    0.0024673076370531465-0.0072776312309283725i
0.016969696969696968      -0.005878787878787879    0.0024205663747932133-0.007139762142137737i
0.017272727272727273      -0.005878787878787879    0.0023745976663651592-0.007004171792609574i
0.017575757575757574      -0.005878787878787879    0.002329242944690031-0.006870392469684307i
0.01787878787878788       -0.005878787878787879    0.002284529901287298-0.006738505852804963i
0.01818181818181818       -0.005878787878787879    0.0022406491486155855-0.006609074176694439i
0.018484848484848486      -0.005878787878787879    0.0021975056578674057-0.006481817142723695i
0.018787878787878787      -0.005878787878787879    0.0021550859944656836-0.006356695123862561i
0.019090909090909092      -0.005878787878787879    0.0021134822035882538-0.006233979618532689i
0.019393939393939394      -0.005878787878787879    0.0020727060016703476-0.006113705186234806i
0.019696969696969695      -0.005878787878787879    0.002032688573418661-0.005995668847765375i
0.02                      -0.005878787878787879    0.001993454380115901-0.005879942754618296i
0.020303030303030302      -0.005878787878787879    0.001955101192150315-0.005766815292716301i
0.020606060606060607      -0.005878787878787879    0.0019175076365675915-0.005655928457822709i
0.02090909090909091       -0.005878787878787879    0.0018806761302390504-0.005547289378732307i
0.021212121212121213      -0.005878787878787879    0.0018447039173537434-0.0054411848890424845i
0.021515151515151515      -0.005878787878787879    0.0018094955088453187-0.005337333332408698i
0.02181818181818182       -0.005878787878787879    0.001775030855141534-0.005235675570044218i
0.02212121212121212       -0.005878787878787879    0.0017413586147531851-0.005136355126094629i
0.022424242424242423      -0.005878787878787879    0.0017084558345750083-0.0050393042979079445i
0.022727272727272728      -0.005878787878787879    0.0016762660625682746-0.004944356573175307i
0.02303030303030303       -0.005878787878787879    0.0016448040321060712-0.0048515554097115846i
0.023333333333333334      -0.005878787878787879    0.001614100836564101-0.0047609925214328165i
0.023636363636363636      -0.005878787878787879    0.0015840729343790062-0.004672421492286762i
0.02393939393939394       -0.005878787878787879    0.0015547201867537675-0.004585841912823633i
0.024242424242424242      -0.005878787878787879    0.0015260851880115277-0.00450137942017196i
0.024545454545454544      -0.005878787878787879    0.001498095747643331-0.0044188210798103665i
0.02484848484848485       -0.005878787878787879    0.0014707377887751263-0.0043381253701743165i
0.02515151515151515       -0.005878787878787879    0.001444035439188313-0.004259363458993741i
0.025454545454545455      -0.005878787878787879    0.0014179566700544194-0.004182440873565582i
0.025757575757575757      -0.005878787878787879    0.0013924650722535355-0.004107250220631667i
0.026060606060606062      -0.005878787878787879    0.001367568740558808-0.004033815376608011i
0.026363636363636363      -0.005878787878787879    0.0013432718087438374-0.0039621485347159325i
0.026666666666666665      -0.005878787878787879    0.0013195190546427737-0.0038920868103865533i
0.02696969696969697       -0.005878787878787879    0.0012963106943213278-0.0038236308408798876i
0.02727272727272727       -0.005878787878787879    0.0012736632896594067-0.0037568294773725475i
0.027575757575757576      -0.005878787878787879    0.0012515258483192313-0.003691532311911758i
0.027878787878787878      -0.005878787878787879    0.0012298901439828861-0.0036277150799045054i
0.028181818181818183      -0.005878787878787879    0.001208766505470986-0.0035654082472056942i
0.028484848484848484      -0.005878787878787879    0.001188125706948311-0.0035045256088725076i
0.02878787878787879       -0.005878787878787879    0.0011679473357832529-0.0034450069553336204i
0.02909090909090909       -0.005878787878787879    0.0011482373482669002-0.0033868698550948784i
0.029393939393939392      -0.005878787878787879    0.0011289804581307993-0.0033300692194624024i
0.029696969696969697      -0.005878787878787879    0.0011101480831403243-0.0032745207419085046i
0.03                      -0.005878787878787879    0.0010917494435770127-0.0032202516179306597i
0                         -0.005818181818181819    -4.956074330339559E-7+1.4618545641739828E-6i
3.0303030303030303E-4     -0.005818181818181819    2.1921622554109572E-4-6.466052681922919E-4i
6.060606060606061E-4      -0.005818181818181819    4.374019379115025E-4-0.001290170910906545i
9.090909090909091E-4      -0.005818181818181819    6.538863213430046E-4-0.001928718275240418i
0.0012121212121212121     -0.005818181818181819    8.665668426812575E-4-0.002556045683253326i
0.0015151515151515152     -0.005818181818181819    0.0010756760639054775-0.0031728391026067324i
0.0018181818181818182     -0.005818181818181819    0.0012801311114825785-0.003775904466188078i
0.002121212121212121      -0.005818181818181819    0.0014780553300201523-0.0043597063503076055i
0.0024242424242424242     -0.005818181818181819    0.0016695083955479682-0.0049244207742140085i
0.0027272727272727275     -0.005818181818181819    0.0018538054432860893-0.005468027646213057i
0.0030303030303030303     -0.005818181818181819    0.0020301769898034296-0.005988257281239752i
0.003333333333333333      -0.005818181818181819    0.002196950042091878-0.006480174980717264i
0.0036363636363636364     -0.005818181818181819    0.0023549520928557617-0.006946221535169073i